% Model:              PROYECTO.mph
% Version:            COMSOL 5.6.0.280
% Date:               Jul 16 2026, 23:57
% Table:              Tabla 7 - Valor propio 3
% x_0 (nm)                                        lambda                                            Energía propia (meV)                              Probabilidad total (1)
-35                                               -0.021199646833063537-7.546335071840282E-16i      -21.199646833063536-7.546335071840282E-13i        0.9999999999999987
-35                                               -0.013940943049288848+7.280579500340556E-17i      -13.940943049288846+7.280579500340556E-14i        1.0000000000000027
-35                                               -0.006884163764868487+8.470892724091787E-16i      -6.884163764868486+8.470892724091787E-13i         0.9999999999999998
-35                                               -3.2698704257608235E-5-1.2461261879686218E-18i    -0.03269870425760823-1.2461261879686217E-15i      1.0000000000000013
-35                                               0.006607311758586795-1.1136235286367976E-16i      6.607311758586795-1.1136235286367974E-13i         0.9999999999999994
-35                                               0.013026929300053253-1.0154486409369958E-16i      13.02692930005325-1.0154486409369957E-13i         1.000000000000001
-35                                               0.019213875026431057+4.607569652936414E-16i       19.213875026431054+4.607569652936414E-13i         1.0000000000000009
-35                                               0.02515128544604689-1.7325420407724377E-16i       25.151285446046888-1.7325420407724376E-13i        1.0000000000000002
-35                                               0.03081516733639353+9.523554187050047E-17i        30.815167336393525+9.523554187050047E-14i         0.9999999999999988
-35                                               0.032571486270694464-1.7034436746868853E-16i      32.571486270694464-1.7034436746868853E-13i        1.0000000000000009
-35                                               0.03616806681655052+4.046134108932673E-16i        36.168066816550514+4.046134108932672E-13i         0.9999999999999978
-35                                               0.04057180161978377-7.870215637899706E-16i        40.57180161978376-7.870215637899706E-13i          0.9999999999999988
-35                                               0.04112212962861443-3.728907638261154E-16i        41.122129628614424-3.7289076382611534E-13i        1.0000000000000007
-35                                               0.04161065367640766+1.4736811988081977E-16i       41.61065367640766+1.4736811988081974E-13i         1.000000000000004
-35                                               0.04561097076626968-1.4430238710089018E-15i       45.61097076626967-1.4430238710089017E-12i         1.0000000000000009
-35                                               0.04726246945784746-3.0394467814076885E-16i       47.26246945784746-3.0394467814076883E-13i         0.999999999999998
-35                                               0.04833606728744261-8.749196890392608E-16i        48.3360672874426-8.749196890392607E-13i           1
-35                                               0.05178448624036104+8.159113733190247E-17i        51.78448624036104+8.159113733190246E-14i          1.0000000000000004
-35                                               0.05344918446319359-1.0197421226155804E-15i       53.44918446319359-1.0197421226155803E-12i         0.9999999999999988
-35                                               0.05583456166616201-1.2742124716701799E-15i       55.834561666162-1.2742124716701797E-12i           1.0000000000000018
-35                                               0.05591731721573726-9.234138306882011E-16i        55.917317215737256-9.23413830688201E-13i          1.0000000000000004
-35                                               0.060544698145812606-1.0046234644935173E-15i      60.544698145812596-1.0046234644935172E-12i        1.0000000000000009
-35                                               0.061975204573066774-1.8724406780424373E-15i      61.97520457306677-1.872440678042437E-12i          0.9999999999999987
-35                                               0.06307623778932855-4.77213875408929E-15i         63.07623778932855-4.77213875408929E-12i           1.000000000000001
-35                                               0.06811061679283395-1.30382694636718E-12i         68.11061679283395-1.3038269463671798E-9i          1.0000000000000013
-35                                               0.06968488733139175-1.0884951488185059E-12i       69.68488733139174-1.0884951488185057E-9i          0.9999999999999999
-35                                               0.0700395892182062-1.4965842241072657E-11i        70.03958921820619-1.4965842241072653E-8i          1.0000000000000007
-35                                               0.07285502143630761+8.960504253762756E-10i        72.8550214363076+8.960504253762756E-7i            1.0000000000000004
-35                                               0.07350748785817329-5.988161757662604E-11i        73.50748785817329-5.988161757662604E-8i           1.0000000000000013
-35                                               0.07669105090622731+8.441268270487256E-11i        76.6910509062273+8.441268270487255E-8i            0.9999999999999984
-33.99999999999999                                -0.021228723429845914-1.871730674246974E-16i      -21.228723429845914-1.8717306742469735E-13i       0.9999999999999983
-33.99999999999999                                -0.01397083198776107+7.478667992064224E-17i       -13.97083198776107+7.478667992064224E-14i         1.0000000000000018
-33.99999999999999                                -0.006915001740336199-7.594390161241851E-16i      -6.915001740336199-7.59439016124185E-13i          1.000000000000001
-33.99999999999999                                -6.465689422917309E-5+1.4651929966911315E-18i     -0.06465689422917308+1.4651929966911311E-15i      1.0000000000000013
-33.99999999999999                                0.006574011176659192+2.0439323689941785E-16i      6.574011176659191+2.0439323689941783E-13i         0.9999999999999984
-33.99999999999999                                0.012991985897045505+1.379306773389149E-16i       12.991985897045502+1.3793067733891489E-13i        0.9999999999999996
-33.99999999999999                                0.01917686133403569+3.0310761408898413E-16i       19.17686133403569+3.0310761408898406E-13i         1.0000000000000007
-33.99999999999999                                0.025111546867571208+7.134369430583118E-17i       25.111546867571203+7.134369430583117E-14i         1.0000000000000002
-33.99999999999999                                0.030771561351350868+3.659500838277943E-16i       30.771561351350865+3.6595008382779425E-13i        0.999999999999998
-33.99999999999999                                0.03254137443367501+2.261237505344314E-16i        32.541374433675+2.261237505344314E-13i            0.999999999999999
-33.99999999999999                                0.03611810133331658-6.633499521500224E-16i        36.11810133331658-6.633499521500223E-13i          1.0000000000000013
-33.99999999999999                                0.040540552561923855-2.6094479695496084E-16i      40.540552561923846-2.6094479695496085E-13i        0.9999999999999996
-33.99999999999999                                0.04103735493765384-1.2330866002109113E-16i       41.03735493765384-1.2330866002109113E-13i         0.9999999999999989
-33.99999999999999                                0.04154467729818444+1.8205396658398854E-17i       41.54467729818443+1.8205396658398853E-14i         1.0000000000000036
-33.99999999999999                                0.04520592690353627-2.4951658250864417E-16i       45.20592690353626-2.4951658250864414E-13i         0.9999999999999991
-33.99999999999999                                0.04590785967907805-2.559237415543776E-16i        45.907859679078044-2.559237415543776E-13i         1.0000000000000009
-33.99999999999999                                0.04830378014165739+8.086513869462542E-16i        48.303780141657384+8.086513869462542E-13i         0.9999999999999991
-33.99999999999999                                0.051127893697880664-2.242377829222953E-16i       51.127893697880666-2.242377829222953E-13i         1.0000000000000002
-33.99999999999999                                0.05323351482991884-3.853807484216394E-16i        53.23351482991883-3.853807484216394E-13i          1.0000000000000004
-33.99999999999999                                0.055785166216314915+2.1698475887857127E-15i      55.785166216314906+2.1698475887857124E-12i        0.9999999999999997
-33.99999999999999                                0.055826032181464036+1.4866411029096368E-15i      55.82603218146403+1.4866411029096365E-12i         1.0000000000000016
-33.99999999999999                                0.059977649891261677-8.803331674238754E-16i       59.97764989126168-8.803331674238752E-13i          0.9999999999999989
-33.99999999999999                                0.06172322520114131-6.455888513121088E-16i        61.723225201141304-6.455888513121087E-13i         0.9999999999999986
-33.99999999999999                                0.06304089613129936+8.107192298182286E-15i        63.040896131299355+8.107192298182285E-12i         0.9999999999999994
-33.99999999999999                                0.06800652148195184-2.144484640800097E-12i        68.00652148195182-2.1444846408000967E-9i          1.000000000000002
-33.99999999999999                                0.06910237134947317-1.3516587964457156E-12i       69.10237134947316-1.3516587964457154E-9i          1.0000000000000024
-33.99999999999999                                0.07000199417176703-9.554465056540557E-12i        70.00199417176702-9.554465056540556E-9i           1.0000000000000016
-33.99999999999999                                0.07275343533732581+1.2046146643812013E-9i        72.7534353373258+1.2046146643812012E-6i           1.0000000000000009
-33.99999999999999                                0.0732081479982076-6.347975782456154E-11i         73.2081479982076-6.347975782456154E-8i            0.999999999999999
-33.99999999999999                                0.07665089988921671+1.5827397323461561E-10i       76.6508998892167+1.582739732346156E-7i            0.999999999999999
-33                                               -0.02125875209451504-6.2574321130895E-16i         -21.258752094515035-6.257432113089499E-13i        0.999999999999999
-33                                               -0.014001683225677602-3.8071274754908764E-16i     -14.0016832256776-3.807127475490876E-13i          1.0000000000000022
-33                                               -0.006946813423021059+1.9026148822125852E-16i     -6.946813423021058+1.9026148822125852E-13i        1
-33                                               -9.760131828785712E-5+2.1154191554629062E-18i     -0.0976013182878571+2.1154191554629057E-15i       1.0000000000000018
-33                                               0.006539710727916273-3.017385692818657E-16i       6.5397107279162725-3.017385692818657E-13i         0.9999999999999993
-33                                               0.012956027800768516-3.3233350105852357E-16i      12.956027800768515-3.323335010585235E-13i         0.9999999999999996
-33                                               0.019138816481125656-2.791308672587895E-16i       19.138816481125655-2.791308672587895E-13i         1.0000000000000016
-33                                               0.02507075550297791-8.204215432676915E-18i        25.070755502977907-8.204215432676913E-15i         1.000000000000001
-33                                               0.030726832307337984+5.276202459137667E-17i       30.72683230733798+5.276202459137667E-14i          1.0000000000000002
-33                                               0.032510255322389284-2.0255315032682242E-16i      32.51025532238928-2.0255315032682238E-13i         1.0000000000000007
-33                                               0.036066482520582185-6.007732414488431E-17i       36.066482520582184-6.00773241448843E-14i          1.0000000000000027
-33                                               0.04050825982507158+8.971886458150913E-16i        40.508259825071576+8.971886458150911E-13i         1.0000000000000007
-33                                               0.04086585863775232+3.5176818576093703E-16i       40.86585863775232+3.5176818576093696E-13i         1.0000000000000004
-33                                               0.04147533757990624-4.6382923928844904E-18i       41.47533757990624-4.63829239288449E-15i           1.000000000000002
-33                                               0.042922898797420984+1.1421028184628702E-17i      42.922898797420984+1.1421028184628701E-14i        0.9999999999999999
-33                                               0.045554316857724306+9.127221477672207E-16i       45.5543168577243+9.127221477672206E-13i           1.0000000000000013
-33                                               0.04827045224424958-1.0068368902026037E-15i       48.27045224424957-1.0068368902026036E-12i         0.999999999999999
-33                                               0.05061745921704166+6.651067306889459E-16i        50.61745921704165+6.651067306889459E-13i          0.9999999999999998
-33                                               0.053010534450480644+3.5353718441853564E-16i      53.010534450480634+3.535371844185356E-13i         1.0000000000000002
-33                                               0.05568572363010724-3.1656365140793685E-16i       55.685723630107226-3.165636514079368E-13i         0.9999999999999979
-33                                               0.055776441055926544+6.358317455529275E-15i       55.77644105592653+6.358317455529275E-12i          1.0000000000000007
-33                                               0.05940565142389725+5.73822156577435E-16i         59.40565142389724+5.73822156577435E-13i           1.0000000000000007
-33                                               0.061455268770369074-1.2028384089499322E-15i      61.45526877036907-1.2028384089499321E-12i         1.0000000000000013
-33                                               0.06300447626331768-2.5317557776407682E-15i       63.00447626331768-2.5317557776407677E-12i         0.9999999999999999
-33                                               0.06789555510956952-3.645621650184737E-12i        67.89555510956951-3.6456216501847365E-9i          0.9999999999999998
-33                                               0.06850448959895461-1.8583202736236796E-12i       68.5044895989546-1.8583202736236793E-9i           0.9999999999999997
-33                                               0.06996329981724128-7.535144196446412E-12i        69.96329981724126-7.535144196446411E-9i           0.9999999999999991
-33                                               0.07264336268215882+1.6039520706903814E-9i        72.64336268215881+1.6039520706903812E-6i          0.9999999999999994
-33                                               0.07288246625701829-1.408272166815974E-10i        72.88246625701828-1.408272166815974E-7i           1.0000000000000002
-33                                               0.07660963022397718+2.8972878586594065E-10i       76.60963022397718+2.897287858659406E-7i           1.0000000000000016
-31.999999999999996                               -0.02128978001361717+2.357118392375648E-16i       -21.289780013617168+2.357118392375648E-13i        1.0000000000000004
-31.999999999999996                               -0.01403354246949133+5.041937385747164E-16i       -14.03354246949133+5.041937385747164E-13i         1.0000000000000009
-31.999999999999996                               -0.006979642578928191+5.645956974490963E-16i      -6.979642578928191+5.645956974490962E-13i         1.0000000000000004
-31.999999999999996                               -1.3157311800066074E-4+2.63376007071583E-18i      -0.1315731180006607+2.6337600707158294E-15i       1
-31.999999999999996                               0.006504372929249325-1.9691249097260288E-16i      6.504372929249324-1.9691249097260285E-13i         1.0000000000000007
-31.999999999999996                               0.012919022803464283-4.2603816289290593E-16i      12.919022803464282-4.2603816289290586E-13i        1.000000000000001
-31.999999999999996                               0.01909971620944996-9.371975597268902E-16i        19.09971620944996-9.3719755972689E-13i            1.0000000000000004
-31.999999999999996                               0.025028898481522163+3.179866375145451E-16i       25.028898481522162+3.1798663751454505E-13i        0.9999999999999999
-31.999999999999996                               0.030680953769035707-9.313812073039534E-16i       30.680953769035703-9.313812073039534E-13i         0.9999999999999989
-31.999999999999996                               0.03247807779376795-1.4815831017215182E-16i       32.478077793767945-1.481583101721518E-13i         0.9999999999999984
-31.999999999999996                               0.03601189108249089-1.3013609896883928E-16i       36.01189108249089-1.3013609896883925E-13i         1.0000000000000004
-31.999999999999996                               0.03938361692146968-2.312852970550287E-16i        39.38361692146968-2.312852970550287E-13i          1.0000000000000007
-31.999999999999996                               0.04047487366882141+1.7473313712859838E-16i       40.4748736688214+1.7473313712859835E-13i          1.0000000000000007
-31.999999999999996                               0.04121580506753856-1.0958043847747869E-16i       41.215805067538554-1.0958043847747867E-13i        1.0000000000000013
-31.999999999999996                               0.04140294980146989-2.4049119904961057E-17i       41.40294980146989-2.4049119904961055E-14i         0.9999999999999977
-31.999999999999996                               0.04543807895834716+6.54046922763236E-16i         45.43807895834715+6.540469227632359E-13i          1.0000000000000004
-31.999999999999996                               0.04823603590269753-1.6731209541381102E-15i       48.23603590269752-1.67312095413811E-12i           1.0000000000000002
-31.999999999999996                               0.05028776627614788+9.332216831473445E-16i        50.28776627614787+9.332216831473444E-13i          0.9999999999999998
-31.999999999999996                               0.052785199345270234-2.4640562638876595E-16i      52.78519934527023-2.4640562638876593E-13i         1
-31.999999999999996                               0.055565706018551556-3.6355273253364187E-16i      55.56570601855155-3.6355273253364185E-13i         1
-31.999999999999996                               0.055738220919182506-3.5001245761540374E-15i      55.738220919182496-3.500124576154037E-12i         0.9999999999999986
-31.999999999999996                               0.05897396776247843+3.1241282344085105E-16i       58.973967762478416+3.12412823440851E-13i          0.9999999999999987
-31.999999999999996                               0.061173976680564505+1.0018034073906592E-15i      61.1739766805645+1.001803407390659E-12i           1.0000000000000002
-31.999999999999996                               0.06296693779323512-7.354803297085034E-15i        62.96693779323511-7.354803297085033E-12i          0.9999999999999999
-31.999999999999996                               0.06777699091983605-6.140407795830179E-12i        67.77699091983604-6.1404077958301784E-9i          1.0000000000000007
-31.999999999999996                               0.06807782233209825-2.2342874408733095E-12i       68.07782233209825-2.234287440873309E-9i           0.9999999999999991
-31.999999999999996                               0.06992347270701395-6.803570152627081E-12i        69.92347270701394-6.80357015262708E-9i            0.9999999999999987
-31.999999999999996                               0.07250207471433114-2.9654567723294857E-10i       72.50207471433113-2.9654567723294855E-7i          0.9999999999999989
-31.999999999999996                               0.07258196719216838-9.212443929723809E-10i        72.58196719216836-9.212443929723809E-7i           1.0000000000000004
-31.999999999999996                               0.07656722219580826+2.7009147568780885E-10i       76.56722219580826+2.700914756878088E-7i           1.0000000000000002
-30.999999999999996                               -0.021321857519821533+1.7409981455378906E-16i     -21.32185751982153+1.7409981455378905E-13i        1.0000000000000007
-30.999999999999996                               -0.014066458254745437-6.28765791973676E-16i       -14.066458254745434-6.287657919736759E-13i        0.9999999999999996
-30.999999999999996                               -0.007013535399714194-1.73098244752876E-15i       -7.0135353997141925-1.73098244752876E-12i         0.9999999999999979
-30.999999999999996                               -1.6661533197913359E-4-1.878865966600719E-18i     -0.16661533197913359-1.878865966600719E-15i       1.0000000000000004
-30.999999999999996                               0.006467959116402827+1.8538793879624058E-16i      6.4679591164028265+1.8538793879624056E-13i        1.0000000000000022
-30.999999999999996                               0.012880938526929397+4.567657418621546E-16i       12.880938526929395+4.567657418621546E-13i         1.0000000000000004
-30.999999999999996                               0.019059537616570726+2.0088754569699593E-15i      19.059537616570722+2.008875456969959E-12i         1.0000000000000027
-30.999999999999996                               0.02498596588017027-3.4529227457528776E-16i       24.985965880170266-3.452922745752877E-13i         1.0000000000000009
-30.999999999999996                               0.03063386265871773+8.355051526668998E-16i        30.633862658717728+8.355051526668998E-13i         1.000000000000001
-30.999999999999996                               0.03244478720140327+6.811654839303775E-16i        32.444787201403265+6.811654839303774E-13i         1.0000000000000002
-30.999999999999996                               0.03592801517832192-7.425866634081116E-16i        35.928015178321914-7.425866634081116E-13i         0.999999999999999
-30.999999999999996                               0.03654803278813486+6.717315799909973E-16i        36.548032788134854+6.717315799909972E-13i         0.9999999999999986
-30.999999999999996                               0.040440327766012106+7.385734610066439E-16i       40.440327766012096+7.385734610066438E-13i         1.0000000000000009
-30.999999999999996                               0.04101230903369189+3.083012628659675E-16i        41.012309033691885+3.0830126286596747E-13i        1
-30.999999999999996                               0.04132605792221302-5.0734765724905196E-17i       41.32605792221302-5.073476572490519E-14i          1.0000000000000013
-30.999999999999996                               0.045339287300391024+2.0720020213318423E-15i      45.339287300391014+2.072002021331842E-12i         1.0000000000000009
-30.999999999999996                               0.048200480735126214+7.914413893672588E-16i       48.200480735126206+7.914413893672588E-13i         1.000000000000002
-30.999999999999996                               0.0500760334444778+1.5491585696369869E-15i        50.076033444477794+1.5491585696369868E-12i        0.9999999999999996
-30.999999999999996                               0.05256319131953114-1.2548060072733777E-15i       52.563191319531136-1.2548060072733776E-12i        1.0000000000000007
-30.999999999999996                               0.05543511727121892-7.165227863413613E-18i        55.435117271218914-7.165227863413613E-15i         0.9999999999999991
-30.999999999999996                               0.0557003858244283+1.6559357621085489E-15i        55.700385824428295+1.6559357621085486E-12i        1.0000000000000002
-30.999999999999996                               0.05871866361298946+6.353981733963899E-16i        58.71866361298946+6.353981733963898E-13i          1.000000000000001
-30.999999999999996                               0.06088369011506821-4.1153010251454804E-15i       60.883690115068205-4.11530102514548E-12i          0.9999999999999984
-30.999999999999996                               0.06292823913825157+3.0798901149686728E-15i       62.92823913825156+3.0798901149686727E-12i         1.0000000000000002
-30.999999999999996                               0.06765007441228602-6.225295226891086E-12i        67.65007441228602-6.225295226891085E-9i           1.0000000000000004
-30.999999999999996                               0.06787429805516997-1.5193306883813564E-12i       67.87429805516996-1.5193306883813564E-9i          1.000000000000001
-30.999999999999996                               0.06988247986001801-6.470424795110508E-12i        69.88247986001801-6.470424795110507E-9i           1.0000000000000018
-30.999999999999996                               0.07222601434050543+4.60252994429605E-11i         72.22601434050543+4.6025299442960495E-8i          0.999999999999999
-30.999999999999996                               0.0724233801257307-6.643793564128342E-10i         72.42338012573069-6.64379356412834E-7i            1.0000000000000007
-30.999999999999996                               0.0765236598261828+2.5734592315853883E-10i        76.5236598261828+2.573459231585388E-7i            1.0000000000000007
-30                                               -0.021355038356530798+6.827578899048989E-16i      -21.355038356530798+6.827578899048989E-13i        1.0000000000000007
-30                                               -0.014100482158158081+1.0344072347703959E-16i     -14.10048215815808+1.0344072347703958E-13i        1.0000000000000022
-30                                               -0.007048540650147539+2.489186930726803E-16i      -7.0485406501475385+2.4891869307268026E-13i       1.0000000000000018
-30                                               -2.0277296198101258E-4-8.100465999715457E-19i     -0.20277296198101255-8.100465999715456E-16i       0.9999999999999983
-30                                               0.0064304294829816006+1.905710248569472E-17i      6.430429482981601+1.9057102485694715E-14i         0.9999999999999983
-30                                               0.01284174260249811-1.774931602388414E-18i        12.841742602498108-1.7749316023884138E-15i        0.999999999999998
-30                                               0.01901825953699722+1.5705942745612512E-16i       19.018259536997217+1.570594274561251E-13i         0.9999999999999986
-30                                               0.02494195112183184-5.760115494199581E-17i        24.94195112183184-5.76011549419958E-14i           1.0000000000000002
-30                                               0.03058535129187566-3.776426456449017E-17i        30.585351291875657-3.776426456449017E-14i         1.0000000000000013
-30                                               0.03241032509190525-2.9501335012554905E-17i       32.41032509190525-2.9501335012554904E-14i         1.0000000000000004
-30                                               0.03398494687158572-5.0881175444740616E-17i       33.98494687158572-5.088117544474061E-14i          0.9999999999999969
-30                                               0.035924067882027524+4.969696391601484E-16i       35.924067882027515+4.969696391601484E-13i         0.9999999999999982
-30                                               0.04040456233226145-2.9188699808515986E-16i       40.40456233226145-2.9188699808515985E-13i         1.000000000000001
-30                                               0.040920284993950014-3.500267992501452E-16i       40.92028499395001-3.500267992501451E-13i          0.9999999999999997
-30                                               0.04124522583679236+8.300225670676356E-17i        41.24522583679236+8.300225670676354E-14i          0.9999999999999999
-30                                               0.04524650111649352+4.987965299008802E-16i        45.24650111649352+4.987965299008801E-13i          0.9999999999999992
-30                                               0.04816373350270152-7.67547460058785E-16i         48.16373350270152-7.675474600587849E-13i          1.0000000000000007
-30                                               0.049927041510584406+2.066807085863541E-16i       49.9270415105844+2.0668070858635406E-13i          1
-30                                               0.05235239867010725-3.95458353587501E-16i         52.35239867010725-3.9545835358750097E-13i         1.0000000000000002
-30                                               0.05529397221890764+1.9445053193330023E-16i       55.29397221890763+1.944505319333002E-13i          0.9999999999999961
-30                                               0.05566177938588593+3.1303966309476974E-17i       55.66177938588592+3.130396630947697E-14i          1.0000000000000036
-30                                               0.05859782199932436+3.3122440855258567E-16i       58.59782199932435+3.3122440855258567E-13i         1.0000000000000007
-30                                               0.06059238877510665-9.94715046456222E-16i         60.59238877510665-9.94715046456222E-13i           1
-30                                               0.06288833757852802-3.0271422893695575E-15i       62.88833757852802-3.027142289369557E-12i          0.9999999999999997
-30                                               0.06751395209212291-3.1221727430849585E-12i       67.5139520921229-3.122172743084958E-9i            1.000000000000001
-30                                               0.06783699906173521-3.3130955167223686E-13i       67.8369990617352-3.313095516722368E-10i           0.9999999999999997