% Model:              PROYECTO.mph
% Version:            COMSOL 5.6.0.280
% Date:               Jul 10 2026, 14:15
% Table:              Tabla 2 - Valor propio 3
% x_0 (nm)                                        lambda                                            Energía propia (meV)                              Probabilidad total (1)
-35                                               0.005911203244478261                              5.911203244478261                                 0.9999999999999968
-35                                               0.01419463771024354                               14.194637710243539                                1
-35                                               0.015138320382602044                              15.138320382602043                                0.9999999999999988
-35                                               0.016600849551029265                              16.600849551029263                                0.9999999999999987
-35                                               0.01685645370391768                               16.85645370391768                                 0.999999999999999
-35                                               0.020117254254509415                              20.11725425450941                                 1.0000000000000004
-35                                               0.02048923678063591                               20.48923678063591                                 1.0000000000000004
-35                                               0.02528750043997814                               25.28750043997814                                 1.000000000000002
-35                                               0.025720976387562114                              25.72097638756211                                 0.9999999999999978
-35                                               0.0319465542248113                                31.946554224811294                                0.9999999999999992
-35                                               0.03243350897834013                               32.43350897834013                                 0.9999999999999987
-35                                               0.0399623321262469                                39.96233212624689                                 1.0000000000000024
-35                                               0.04017481495955887                               40.17481495955887                                 1.0000000000000018
-35                                               0.04054051434857355                               40.540514348573545                                0.9999999999999981
-35                                               0.049075864371084556                              49.07586437108455                                 1.0000000000000007
-35                                               0.049960792338534225                              49.960792338534226                                1.0000000000000016
-35                                               0.05171568919089706                               51.715689190897045                                1.000000000000002
-35                                               0.05190160729174265                               51.90160729174265                                 1.0000000000000013
-35                                               0.05579782583593037                               55.79782583593036                                 1
-35                                               0.06060860452782965                               60.60860452782965                                 0.9999999999999982
-35                                               0.06089061641259237                               60.890616412592365                                0.9999999999999991
-35                                               0.06558237681133255                               65.58237681133255                                 0.9999999999999987
-35                                               0.06637244431980892                               66.37244431980892                                 1.0000000000000004
-35                                               0.06791457514115383                               67.91457514115382                                 1.0000000000000007
-35                                               0.068269487679274                                 68.269487679274                                   0.9999999999999979
-35                                               0.07136472896489496                               71.36472896489495                                 0.9999999999999998
-35                                               0.07203851578590635                               72.03851578590634                                 0.9999999999999989
-35                                               0.07260029383930498                               72.60029383930498                                 1.0000000000000007
-35                                               0.07263034871750432                               72.6303487175043                                  0.999999999999999
-35                                               0.07740067921572741                               77.4006792157274                                  1.0000000000000004
-35                                               0.07789946137273701                               77.89946137273701                                 0.9999999999999987
-35                                               0.08032606386225905                               80.32606386225903                                 1
-35                                               0.08232556981203847                               82.32556981203845                                 1
-35                                               0.08419717556575318                               84.19717556575317                                 1.0000000000000002
-35                                               0.08499766271884991                               84.99766271884991                                 0.9999999999999996
-35                                               0.0857244952832085                                85.72449528320848                                 0.9999999999999986
-35                                               0.08573929581141469                               85.73929581141468                                 1.000000000000002
-35                                               0.09377062416252008                               93.77062416252008                                 1.0000000000000004
-35                                               0.09437187908605918                               94.37187908605917                                 0.9999999999999998
-35                                               0.09916012069479618                               99.16012069479616                                 0.999999999999998
-35                                               0.09947430776718319                               99.47430776718318                                 0.9999999999999993
-35                                               0.10463580621661264                               104.63580621661264                                0.9999999999999973
-35                                               0.10516760701282414                               105.16760701282412                                1.0000000000000007
-35                                               0.11392401468898176                               113.92401468898176                                1.000000000000002
-35                                               0.11447408703358873                               114.47408703358872                                0.9999999999999998
-35                                               0.11717050838689869                               117.17050838689867                                0.9999999999999999
-35                                               0.1176201850637924                                117.6201850637924                                 0.9999999999999983
-35                                               0.12288754830121747                               122.88754830121745                                1.0000000000000004
-35                                               0.12291423816479685                               122.91423816479683                                0.9999999999999991
-35                                               0.1290723200100207                                129.0723200100207                                 0.9999999999999998
-34.5                                             0.004560374130529177                              4.560374130529176                                 0.9999999999999993
-34.5                                             0.01410250099631638                               14.102500996316378                                0.999999999999998
-34.5                                             0.015074694784914744                              15.074694784914742                                1.0000000000000013
-34.5                                             0.016502753535433665                              16.502753535433662                                1.0000000000000002
-34.5                                             0.016803001077310947                              16.803001077310945                                1
-34.5                                             0.019964917380881894                              19.964917380881893                                1.0000000000000009
-34.5                                             0.02042084583261071                               20.42084583261071                                 0.999999999999998
-34.5                                             0.025088479104508066                              25.08847910450806                                 1
-34.5                                             0.02564213143435186                               25.642131434351857                                0.9999999999999998
-34.5                                             0.03169726397770617                               31.697263977706164                                0.9999999999999998
-34.5                                             0.03234568333902725                               32.34568333902725                                 1
-34.5                                             0.03963573345235206                               39.635733452352056                                1.0000000000000009
-34.5                                             0.040124882101855386                              40.124882101855384                                0.9999999999999967
-34.5                                             0.04044425233144757                               40.444252331447565                                1.0000000000000004
-34.5                                             0.048506839611656284                              48.50683961165628                                 1.0000000000000004
-34.5                                             0.049855958815853356                              49.85595881585335                                 0.9999999999999994
-34.5                                             0.05166499003013499                               51.66499003013499                                 0.9999999999999998
-34.5                                             0.05185606278727917                               51.856062787279164                                0.9999999999999989
-34.5                                             0.054681907102185276                              54.68190710218527                                 1.0000000000000002
-34.5                                             0.060492918611535905                              60.4929186115359                                  0.9999999999999992
-34.5                                             0.06078430222166686                               60.78430222166685                                 1.0000000000000016
-34.5                                             0.0655071776449691                                65.50717764496909                                 0.9999999999999998
-34.5                                             0.06631830714251424                               66.31830714251424                                 1
-34.5                                             0.06782013866612885                               67.82013866612884                                 0.9999999999999981
-34.5                                             0.06821954717139736                               68.21954717139735                                 1.000000000000001
-34.5                                             0.07114906980555405                               71.14906980555403                                 1.0000000000000009
-34.5                                             0.07194098314257745                               71.94098314257744                                 0.9999999999999971
-34.5                                             0.07251533275601489                               72.51533275601489                                 1.0000000000000018
-34.5                                             0.07254910443556054                               72.54910443556052                                 0.9999999999999994
-34.5                                             0.07725262024081897                               77.25262024081896                                 1.0000000000000016
-34.5                                             0.077832027367421                                 77.83202736742099                                 1.000000000000001
-34.5                                             0.08027779723751939                               80.27779723751938                                 1.0000000000000027
-34.5                                             0.08227646786955745                               82.27646786955744                                 0.999999999999998
-34.5                                             0.08389747915376193                               83.89747915376192                                 1.0000000000000004
-34.5                                             0.08487456882922402                               84.87456882922402                                 0.9999999999999987
-34.5                                             0.08564588105706357                               85.64588105706356                                 0.9999999999999997
-34.5                                             0.08566491410072356                               85.66491410072355                                 1.0000000000000018
-34.5                                             0.09354891889473921                               93.5489188947392                                  0.9999999999999998
-34.5                                             0.09428886431201376                               94.28886431201374                                 0.9999999999999998
-34.5                                             0.09893770754158017                               98.93770754158015                                 1.0000000000000002
-34.5                                             0.09934694517718101                               99.346945177181                                   0.9999999999999997
-34.5                                             0.10444016604122205                               104.44016604122204                                1.0000000000000016
-34.5                                             0.10508532336037871                               105.0853233603787                                 0.9999999999999991
-34.5                                             0.11358923636544643                               113.58923636544641                                0.9999999999999999
-34.5                                             0.11433314666505023                               114.33314666505022                                1.0000000000000004
-34.5                                             0.11701237207259933                               117.01237207259933                                0.9999999999999991
-34.5                                             0.11754025996250954                               117.54025996250952                                0.9999999999999997
-34.5                                             0.1228379871852829                                122.83798718528288                                1.0000000000000047
-34.5                                             0.12286543464307417                               122.86543464307415                                1.0000000000000013
-34.5                                             0.12847008117163933                               128.47008117163932                                0.9999999999999999
-33.99999999999999                                0.0029206982571742396                             2.9206982571742395                                1
-33.99999999999999                                0.01400514867288738                               14.005148672887378                                0.999999999999999
-33.99999999999999                                0.015003026477061143                              15.003026477061143                                0.9999999999999996
-33.99999999999999                                0.016401682116515534                              16.401682116515534                                0.9999999999999998
-33.99999999999999                                0.01674847140139475                               16.74847140139475                                 0.999999999999999
-33.99999999999999                                0.01980321410945224                               19.803214109452234                                0.9999999999999996
-33.99999999999999                                0.02035063426401454                               20.350634264014538                                0.999999999999999
-33.99999999999999                                0.024872988738864274                              24.872988738864272                                1.0000000000000029
-33.99999999999999                                0.02556099235464647                               25.560992354646466                                1.0000000000000002
-33.99999999999999                                0.031421579570270405                              31.421579570270403                                1.0000000000000007
-33.99999999999999                                0.03225520625594323                               32.25520625594323                                 1.0000000000000016
-33.99999999999999                                0.03926326874104514                               39.26326874104514                                 1
-33.99999999999999                                0.0400733968817234                                40.0733968817234                                  0.9999999999999952
-33.99999999999999                                0.04034506873323733                               40.345068733237326                                0.9999999999999999
-33.99999999999999                                0.04783259335264935                               47.83259335264934                                 0.9999999999999998
-33.99999999999999                                0.049748018879930155                              49.74801887993016                                 1.0000000000000004
-33.99999999999999                                0.05161261816062797                               51.61261816062796                                 1.0000000000000013
-33.99999999999999                                0.05180919533359236                               51.809195333592356                                1
-33.99999999999999                                0.053784694903625044                              53.78469490362504                                 1.0000000000000018
-33.99999999999999                                0.0603739608644524                                60.3739608644524                                  1.0000000000000004
-33.99999999999999                                0.06067271149434249                               60.67271149434249                                 1.0000000000000013
-33.99999999999999                                0.06542989288679191                               65.4298928867919                                  0.9999999999999988
-33.99999999999999                                0.0662654681304939                                66.2654681304939                                  0.9999999999999993
-33.99999999999999                                0.06773508463884656                               67.73508463884656                                 0.9999999999999993
-33.99999999999999                                0.0681694691417043                                68.16946914170428                                 1.000000000000001
-33.99999999999999                                0.07095384961172446                               70.95384961172446                                 1.0000000000000002
-33.99999999999999                                0.07183955057240765                               71.83955057240765                                 0.9999999999999994
-33.99999999999999                                0.07243110697228484                               72.43110697228484                                 1.0000000000000004
-33.99999999999999                                0.07246922513180429                               72.46922513180428                                 0.9999999999999974
-33.99999999999999                                0.07712280788118864                               77.12280788118863                                 0.9999999999999991
-33.99999999999999                                0.07776469301680514                               77.76469301680513                                 1.0000000000000009
-33.99999999999999                                0.08022805402962133                               80.22805402962132                                 1.0000000000000018
-33.99999999999999                                0.08222582309809674                               82.22582309809674                                 1.0000000000000029
-33.99999999999999                                0.08363042291088638                               83.63042291088637                                 0.9999999999999998
-33.99999999999999                                0.08475057715257617                               84.75057715257616                                 0.999999999999999
-33.99999999999999                                0.0855650135095895                                85.56501350958949                                 0.9999999999999999
-33.99999999999999                                0.08558958804309849                               85.58958804309847                                 1.0000000000000004
-33.99999999999999                                0.0933554300895607                                93.35543008956068                                 1.0000000000000004
-33.99999999999999                                0.09420658865839143                               94.20658865839142                                 0.9999999999999991
-33.99999999999999                                0.09872754597708631                               98.72754597708631                                 0.9999999999999989
-33.99999999999999                                0.0992179318092235                                99.21793180922349                                 0.9999999999999983
-33.99999999999999                                0.1042770727550397                                104.2770727550397                                 1.0000000000000007
-33.99999999999999                                0.10500417079045249                               105.00417079045248                                0.9999999999999991
-33.99999999999999                                0.11328807182847513                               113.28807182847511                                0.9999999999999986
-33.99999999999999                                0.11419178839322412                               114.1917883932241                                 1.0000000000000004
-33.99999999999999                                0.11688596808709563                               116.88596808709562                                1.0000000000000018
-33.99999999999999                                0.11746138567202005                               117.46138567202004                                1
-33.99999999999999                                0.12278693600681422                               122.7869360068142                                 0.9999999999999993
-33.99999999999999                                0.12281511275187498                               122.81511275187498                                0.9999999999999994
-33.99999999999999                                0.12800880626948274                               128.00880626948273                                1.0000000000000004
-33.5                                             0.0010699217092119545                             1.0699217092119544                                1.0000000000000009
-33.5                                             0.013902571958862575                              13.902571958862573                                0.9999999999999983
-33.5                                             0.01492650017934087                               14.92650017934087                                 1.0000000000000004
-33.5                                             0.016305189291202116                              16.305189291202115                                1
-33.5                                             0.01669309014509146                               16.693090145091457                                0.9999999999999989
-33.5                                             0.01964588734012547                               19.64588734012547                                 1.0000000000000007
-33.5                                             0.020278963849739068                              20.278963849739064                                0.999999999999998
-33.5                                             0.02466206154029464                               24.662061540294637                                1.000000000000001
-33.5                                             0.025478092192657967                              25.478092192657964                                0.9999999999999986
-33.5                                             0.03115085953401117                               31.15085953401117                                 1.0000000000000007
-33.5                                             0.03216284429813132                               32.16284429813132                                 1.0000000000000004
-33.5                                             0.03889755748544563                               38.897557485445624                                1.0000000000000009
-33.5                                             0.040020232698600174                              40.02023269860017                                 1.0000000000000013
-33.5                                             0.04024404483386525                               40.244044833865246                                1.0000000000000004
-33.5                                             0.04720332669622327                               47.20332669622326                                 1.0000000000000009
-33.5                                             0.04963848668092038                               49.63848668092038                                 1
-33.5                                             0.05155852073493829                               51.55852073493828                                 1.0000000000000022
-33.5                                             0.0517609465476236                                51.7609465476236                                  1.0000000000000013
-33.5                                             0.05318572235210704                               53.185722352107035                                0.9999999999999984
-33.5                                             0.06025396233860969                               60.25396233860968                                 1.0000000000000009
-33.5                                             0.06055503103260241                               60.5550310326024                                  0.9999999999999987
-33.5                                             0.06535108291797839                               65.35108291797839                                 0.9999999999999979
-33.5                                             0.0662181982582415                                66.2181982582415                                  0.9999999999999987
-33.5                                             0.0676663376566928                                67.66633765669279                                 1.0000000000000002
-33.5                                             0.06811976075211122                               68.11976075211122                                 1.0000000000000002
-33.5                                             0.07079640199012864                               70.79640199012863                                 0.9999999999999998
-33.5                                             0.07173714782815019                               71.73714782815019                                 1.0000000000000002