% Model:              PROYECTO.mph
% Version:            COMSOL 5.6.0.280
% Date:               Jul 10 2026, 18:47
% Table:              Tabla 3 - Valor propio 4
% R_1 (nm)                                        lambda                                            Energía propia (meV)                              Probabilidad total (1)
7                                                 0.017164379447225445                              17.164379447225443                                0.9999999999999994
7                                                 0.017950366905535323                              17.95036690553532                                 1.0000000000000002
7                                                 0.017950367694703387                              17.950367694703385                                1.0000000000000016
7                                                 0.02029949598801807                               20.29949598801807                                 0.9999999999999982
7                                                 0.020299497165176705                              20.299497165176703                                1.0000000000000002
7                                                 0.024185734138062853                              24.185734138062852                                1.0000000000000018
7                                                 0.024185734610592632                              24.18573461059263                                 1.000000000000001
7                                                 0.029567297426342953                              29.567297426342954                                1.0000000000000009
7                                                 0.02956729879073186                               29.567298790731858                                1.000000000000002
7                                                 0.036389164444290176                              36.389164444290174                                0.9999999999999993
7                                                 0.036389164989012485                              36.38916498901248                                 1
7                                                 0.04458665835144211                               44.58665835144211                                 0.9999999999999999
7                                                 0.04458665926231904                               44.58665926231904                                 1.0000000000000009
7                                                 0.054089935986956654                              54.089935986956654                                1.0000000000000009
7                                                 0.05408993646930327                               54.08993646930326                                 1
7                                                 0.06482888001462642                               64.8288800146264                                  0.9999999999999996
7                                                 0.06482888079522067                               64.82888079522067                                 0.9999999999999998
7                                                 0.06837134624961205                               68.37134624961205                                 1.0000000000000004
7                                                 0.06920209333649652                               69.20209333649652                                 1.000000000000001
7                                                 0.06920209514962068                               69.20209514962067                                 1.0000000000000027
7                                                 0.07169518324642844                               71.69518324642844                                 1.0000000000000013
7                                                 0.0716951871911098                                71.6951871911098                                  0.9999999999999993
7                                                 0.07585285993273862                               75.85285993273861                                 0.9999999999999993
7                                                 0.07585286303210381                               75.85286303210381                                 1.0000000000000022
7                                                 0.07673767429738032                               76.73767429738031                                 1.0000000000000024
7.099999999999999                                 0.01716437964443282                               17.164379644432817                                1
7.099999999999999                                 0.01795036720879259                               17.95036720879259                                 1.000000000000002
7.099999999999999                                 0.017950367795788874                              17.95036779578887                                 0.9999999999999978
7.099999999999999                                 0.020299496072367113                              20.299496072367113                                1.000000000000001
7.099999999999999                                 0.020299497500258917                              20.299497500258916                                0.999999999999999
7.099999999999999                                 0.024185734471392953                              24.18573447139295                                 1.0000000000000002
7.099999999999999                                 0.024185734704743223                              24.18573470474322                                 1.0000000000000013
7.099999999999999                                 0.029567297682123794                              29.56729768212379                                 1.0000000000000004
7.099999999999999                                 0.02956729896192098                               29.567298961920976                                0.9999999999999988
7.099999999999999                                 0.03638916467116443                               36.38916467116442                                 1.000000000000002
7.099999999999999                                 0.03638916518061368                               36.389165180613674                                0.9999999999999982
7.099999999999999                                 0.04458665855937264                               44.58665855937264                                 0.9999999999999979
7.099999999999999                                 0.044586659456344165                              44.586659456344165                                1.0000000000000004
7.099999999999999                                 0.05408993621522321                               54.089936215223204                                0.9999999999999992
7.099999999999999                                 0.05408993661815816                               54.089936618158156                                0.9999999999999987
7.099999999999999                                 0.06482888017068197                               64.82888017068197                                 1.000000000000001
7.099999999999999                                 0.06482888098349826                               64.82888098349825                                 1.0000000000000004
7.099999999999999                                 0.06837134582080322                               68.3713458208032                                  0.9999999999999999
7.099999999999999                                 0.06920209395200214                               69.20209395200213                                 0.9999999999999986
7.099999999999999                                 0.06920209435380129                               69.20209435380129                                 1.000000000000001
7.099999999999999                                 0.07169518345200304                               71.69518345200304                                 0.9999999999999989
7.099999999999999                                 0.07169518754389655                               71.69518754389654                                 1.0000000000000013
7.099999999999999                                 0.07585286016700102                               75.85286016700101                                 0.9999999999999988
7.099999999999999                                 0.07585286376771216                               75.85286376771215                                 1.0000000000000004
7.099999999999999                                 0.07673767445560373                               76.73767445560372                                 1.000000000000003
7.2                                               0.017164379475516897                              17.164379475516895                                0.9999999999999984
7.2                                               0.017950367186568464                              17.950367186568464                                1.0000000000000027
7.2                                               0.017950367491958164                              17.95036749195816                                 0.9999999999999986
7.2                                               0.020299495927333905                              20.299495927333904                                0.9999999999999998
7.2                                               0.020299497338343728                              20.299497338343727                                0.9999999999999994
7.2                                               0.024185734080973756                              24.185734080973752                                1.0000000000000013
7.2                                               0.02418573480252982                               24.185734802529815                                1
7.2                                               0.02956729743796213                               29.56729743796213                                 0.9999999999999989
7.2                                               0.029567298924034924                              29.567298924034922                                1.0000000000000004
7.2                                               0.03638916444199973                               36.389164441999725                                0.9999999999999983
7.2                                               0.03638916513859647                               36.38916513859647                                 1.000000000000002
7.2                                               0.044586658377571205                              44.5866583775712                                  0.9999999999999987
7.2                                               0.044586659381179235                              44.58665938117923                                 0.9999999999999984
7.2                                               0.05408993606565094                               54.08993606565094                                 1.0000000000000004
7.2                                               0.05408993652981156                               54.08993652981156                                 0.9999999999999972
7.2                                               0.06482888003973505                               64.82888003973504                                 0.9999999999999986
7.2                                               0.06482888090045477                               64.82888090045476                                 0.9999999999999986
7.2                                               0.06837134434324427                               68.37134434324426                                 1.0000000000000002
7.2                                               0.06920209238876847                               69.20209238876846                                 1.0000000000000007
7.2                                               0.06920209374107368                               69.20209374107368                                 1.0000000000000009
7.2                                               0.07169518248461021                               71.6951824846102                                  0.9999999999999968
7.2                                               0.07169518710841194                               71.69518710841193                                 0.9999999999999984
7.2                                               0.07585285980807428                               75.85285980807429                                 0.9999999999999998
7.2                                               0.07585286305089597                               75.85286305089598                                 0.9999999999999977
7.2                                               0.07673767436757321                               76.7376743675732                                  0.9999999999999983
7.299999999999999                                 0.017164379912602667                              17.164379912602666                                1.000000000000001
7.299999999999999                                 0.01795036761057074                               17.95036761057074                                 1.0000000000000029
7.299999999999999                                 0.01795036795518909                               17.950367955189087                                0.9999999999999996
7.299999999999999                                 0.02029949665427941                               20.299496654279405                                0.9999999999999979
7.299999999999999                                 0.020299497518238313                              20.29949751823831                                 1.0000000000000004
7.299999999999999                                 0.02418573483159528                               24.185734831595276                                1.0000000000000009
7.299999999999999                                 0.02418573496819955                               24.185734968199547                                0.9999999999999983
7.299999999999999                                 0.029567297802255324                              29.56729780225532                                 0.9999999999999997
7.299999999999999                                 0.02956729947200354                               29.567299472003533                                0.999999999999999
7.299999999999999                                 0.03638916486148823                               36.389164861488226                                1.0000000000000009
7.299999999999999                                 0.03638916561300937                               36.38916561300936                                 0.9999999999999999
7.299999999999999                                 0.04458665889023182                               44.58665889023182                                 0.999999999999999
7.299999999999999                                 0.04458665972823168                               44.58665972823167                                 1.0000000000000016
7.299999999999999                                 0.054089936488689656                              54.08993648868965                                 1.000000000000001
7.299999999999999                                 0.05408993691516228                               54.08993691516227                                 1
7.299999999999999                                 0.06482888043147181                               64.8288804314718                                  1.000000000000001
7.299999999999999                                 0.06482888124903459                               64.82888124903458                                 0.9999999999999997
7.299999999999999                                 0.06837134409934276                               68.37134409934275                                 0.9999999999999996
7.299999999999999                                 0.06920209281691418                               69.20209281691417                                 0.9999999999999997
7.299999999999999                                 0.06920209380471265                               69.20209380471265                                 1.0000000000000002
7.299999999999999                                 0.07169518394770516                               71.69518394770515                                 0.999999999999999
7.299999999999999                                 0.07169518717840205                               71.69518717840205                                 0.9999999999999983
7.299999999999999                                 0.07585286023965464                               75.85286023965463                                 0.9999999999999996
7.299999999999999                                 0.07585286476256152                               75.85286476256151                                 0.9999999999999981
7.299999999999999                                 0.07673767466977724                               76.73767466977722                                 1.0000000000000013
7.4                                               0.017164379783290287                              17.164379783290286                                1.000000000000001
7.4                                               0.017950367464428255                              17.950367464428254                                0.9999999999999978
7.4                                               0.01795036785793093                               17.950367857930928                                1.0000000000000009
7.4                                               0.020299496405757886                              20.299496405757882                                1.0000000000000029
7.4                                               0.020299497547556514                              20.299497547556513                                1.0000000000000004
7.4                                               0.024185734683521615                              24.18573468352161                                 1
7.4                                               0.024185734913986817                              24.185734913986813                                1.0000000000000009
7.4                                               0.02956729787816746                               29.56729787816746                                 0.9999999999999998
7.4                                               0.029567299204014005                              29.567299204014006                                0.9999999999999999
7.4                                               0.03638916485424165                               36.38916485424165                                 0.9999999999999999
7.4                                               0.03638916543600117                               36.389165436001164                                0.9999999999999991
7.4                                               0.0445866586503396                                44.5866586503396                                  1.0000000000000009
7.4                                               0.0445866597926732                                44.586659792673196                                0.9999999999999996
7.4                                               0.05408993638930122                               54.089936389301215                                1.0000000000000004
7.4                                               0.05408993685065313                               54.089936850653125                                0.9999999999999999
7.4                                               0.0648288803572753                                64.8288803572753                                  0.9999999999999984
7.4                                               0.06482888117410683                               64.82888117410683                                 0.9999999999999997
7.4                                               0.06837134233234254                               68.37134233234254                                 0.9999999999999989
7.4                                               0.06920209106485829                               69.2020910648583                                  1.0000000000000002
7.4                                               0.06920209315384729                               69.20209315384729                                 1.0000000000000009
7.4                                               0.07169518312277467                               71.69518312277467                                 0.999999999999999
7.4                                               0.07169518668070027                               71.69518668070026                                 0.9999999999999981
7.4                                               0.07585286006437206                               75.85286006437205                                 1.0000000000000004
7.4                                               0.0758528640907239                                75.8528640907239                                  1.0000000000000007
7.4                                               0.07673767460463679                               76.7376746046368                                  1.0000000000000002
7.5                                               0.017164379393370482                              17.16437939337048                                 1
7.5                                               0.01795036694597557                               17.95036694597557                                 0.9999999999999993
7.5                                               0.017950367613775678                              17.950367613775676                                1.0000000000000024
7.5                                               0.020299496101127024                              20.299496101127023                                1.0000000000000007
7.5                                               0.020299497117041                                 20.299497117041                                   1.000000000000001
7.5                                               0.024185734305013182                              24.185734305013177                                0.9999999999999994
7.5                                               0.02418573457764918                               24.185734577649175                                0.9999999999999999
7.5                                               0.029567297520027444                              29.56729752002744                                 0.9999999999999988
7.5                                               0.02956729886284308                               29.567298862843078                                0.9999999999999981
7.5                                               0.03638916456940665                               36.389164569406645                                1.0000000000000002
7.5                                               0.036389165039333496                              36.38916503933349                                 1.0000000000000013
7.5                                               0.044586658362189696                              44.586658362189695                                0.9999999999999993
7.5                                               0.044586659425321924                              44.58665942532191                                 0.9999999999999994
7.5                                               0.05408993609984105                               54.08993609984105                                 0.9999999999999997
7.5                                               0.0540899365222431                                54.08993652224309                                 1
7.5                                               0.06482888006319254                               64.82888006319254                                 0.9999999999999992
7.5                                               0.06482888090033534                               64.82888090033534                                 0.9999999999999983
7.5                                               0.06837133973800924                               68.37133973800923                                 0.9999999999999988
7.5                                               0.0692020890459723                                69.2020890459723                                  0.9999999999999998
7.5                                               0.0692020913322251                                69.2020913322251                                  1.000000000000001
7.5                                               0.07169518184772672                               71.69518184772672                                 1.0000000000000027
7.5                                               0.07169518532968719                               71.69518532968718                                 0.9999999999999992
7.5                                               0.075852858874488                                 75.85285887448799                                 0.9999999999999999
7.5                                               0.07585286311857668                               75.85286311857668                                 0.9999999999999982
7.5                                               0.07673767435087767                               76.73767435087765                                 0.9999999999999991
7.6                                               0.017164378440823955                              17.164378440823953                                1.0000000000000002
7.6                                               0.0179503656857518                                17.950365685751798                                0.9999999999999994
7.6                                               0.017950366989025676                              17.950366989025675                                0.9999999999999998
7.6                                               0.020299494982045696                              20.299494982045694                                1.000000000000001
7.6                                               0.020299496384518584                              20.29949638451858                                 0.9999999999999999
7.6                                               0.024185733314457045                              24.18573331445704                                 0.9999999999999997
7.6                                               0.024185733745739568                              24.185733745739565                                0.9999999999999988
7.6                                               0.02956729664949692                               29.567296649496917                                1.0000000000000016
7.6                                               0.029567297942195148                              29.567297942195147                                0.9999999999999997
7.6                                               0.036389163726358795                              36.38916372635879                                 1.0000000000000016
7.6                                               0.03638916413705674                               36.38916413705674                                 1.0000000000000007
7.6                                               0.04458665760515184                               44.586657605151835                                1.0000000000000004
7.6                                               0.04458665850834035                               44.58665850834034                                 0.9999999999999998
7.6                                               0.054089935292005606                              54.0899352920056                                  0.9999999999999976
7.6                                               0.05408993575921995                               54.08993575921995                                 1.0000000000000024
7.6                                               0.06482887932876506                               64.82887932876505                                 1.0000000000000004
7.6                                               0.06482888019944671                               64.8288801994467                                  1.000000000000001
7.6                                               0.0683713354793194                                68.37133547931938                                 1.0000000000000004
7.6                                               0.06920208459839546                               69.20208459839544                                 1.0000000000000004
7.6                                               0.06920208885880623                               69.20208885880622                                 1.0000000000000004
7.6                                               0.07169517844500932                               71.69517844500932                                 1.0000000000000002
7.6                                               0.07169518312363003                               71.69518312363003                                 0.9999999999999981
7.6                                               0.07585285642001383                               75.85285642001382                                 0.999999999999999
7.6                                               0.07585286031096429                               75.85286031096427                                 1
7.6                                               0.0767376737236756                                76.73767372367558                                 0.999999999999998
7.7                                               0.01716437927365594                               17.164379273655936                                0.999999999999999