% Model:              PROYECTO.mph
% Version:            COMSOL 5.6.0.280
% Date:               Jul 14 2026, 18:41
% Table:              Tabla 5 - Valor propio 1
% B (T)                                           lambda                                            Energía propia (eV)                               Probabilidad total (1)
0                                                 -0.06169087559236758                              -0.06169087559236758                              0.9999999999999983
0                                                 -0.050816613476438455                             -0.05081661347643846                              1.000000000000001
0                                                 -0.040218626705193716                             -0.040218626705193716                             1.0000000000000007
0                                                 -0.029885477216639922                             -0.029885477216639922                             0.9999999999999992
0                                                 -0.0198088080026029                               -0.0198088080026029                               0.9999999999999992
0                                                 -0.009982888455710909                             -0.009982888455710909                             0.9999999999999994
0                                                 -0.007922974957834228                             -0.007922974957834228                             1.0000000000000004
0                                                 -4.043375134489269E-4                             -4.0433751344892693E-4                            1
0                                                 0.003621696573896563                              0.0036216965738965633                             1.000000000000002
0                                                 0.008928053774764688                              0.008928053774764688                              0.9999999999999997
0                                                 0.014931239643290337                              0.014931239643290338                              1.0000000000000004
0                                                 0.018013404034898428                              0.018013404034898428                              1.0000000000000009
0                                                 0.025996705844959875                              0.025996705844959875                              0.9999999999999983
0                                                 0.026848941241213994                              0.026848941241213998                              0.999999999999999
0                                                 0.029915367984130192                              0.029915367984130192                              1.0000000000000009
0                                                 0.03542800828130864                               0.03542800828130864                               0.9999999999999994
0                                                 0.036811163079999695                              0.0368111630799997                                0.9999999999999998
0                                                 0.04374461577534263                               0.04374461577534264                               1.0000000000000009
0                                                 0.047360601456145436                              0.047360601456145436                              1.000000000000001
0                                                 0.04980844529243341                               0.04980844529243341                               0.999999999999999
0                                                 0.05178678957630828                               0.05178678957630828                               1.0000000000000009
0                                                 0.057645238076236775                              0.057645238076236775                              1.0000000000000002
0                                                 0.05953961387138881                               0.05953961387138881                               0.9999999999999987
0                                                 0.062385476332248536                              0.062385476332248536                              1.000000000000001
0                                                 0.06698172614519864                               0.06698172614519864                               0.9999999999999987
0                                                 0.0676504525641809                                0.0676504525641809                                1.0000000000000004
0                                                 0.07325665931644487                               0.07325665931644487                               0.9999999999999977
0                                                 0.07408805400183809                               0.07408805400183809                               0.9999999999999999
0                                                 0.07736540440542668                               0.07736540440542668                               1.0000000000000007
0                                                 0.08078382116277892                               0.08078382116277893                               0.9999999999999996
0                                                 0.08435037892707445                               0.08435037892707445                               1.0000000000000033
0                                                 0.08505885946665796                               0.08505885946665796                               1.000000000000001
0                                                 0.08647877990648573                               0.08647877990648573                               0.9999999999999993
0                                                 0.08675984088621497                               0.08675984088621498                               0.9999999999999981
0                                                 0.08719118158092203                               0.08719118158092203                               0.999999999999998
0                                                 0.09231141249731875                               0.09231141249731875                               1.0000000000000016
0                                                 0.09589009333514889                               0.0958900933351489                                0.9999999999999997
0                                                 0.0963191422376517                                0.0963191422376517                                0.9999999999999989
0                                                 0.09893503908721181                               0.09893503908721182                               1.0000000000000007
0                                                 0.09956047111900959                               0.09956047111900959                               0.999999999999998
0.1                                               -0.06169076135791607-2.4127164908291844E-15i      -0.06169076135791607-2.4127164908291844E-15i      1.0000000000000007
0.1                                               -0.05081656127677764-3.922773901406383E-15i       -0.050816561276777646-3.922773901406383E-15i      1.0000000000000007
0.1                                               -0.04021862661233616+2.050078559577076E-15i       -0.04021862661233616+2.050078559577076E-15i       0.9999999999999996
0.1                                               -0.02988552073435355-1.6503319819108148E-16i      -0.029885520734353552-1.6503319819108148E-16i     0.9999999999999994
0.1                                               -0.01980888804346441-6.830234718312472E-17i       -0.019808888043464413-6.830234718312472E-17i      1.000000000000001
0.1                                               -0.009982999216817848+9.663324956104477E-17i      -0.009982999216817848+9.663324956104477E-17i      0.9999999999999997
0.1                                               -0.007922679329549917-6.912645085622822E-16i      -0.007922679329549917-6.912645085622823E-16i      1.0000000000000009
0.1                                               -4.0447416296920946E-4-1.386428748036857E-18i     -4.0447416296920946E-4-1.386428748036857E-18i     0.9999999999999992
0.1                                               0.003621979577205392-4.40343083571816E-17i        0.003621979577205392-4.40343083571816E-17i        1.0000000000000024
0.1                                               0.008927895239039654+8.599724012839172E-17i       0.008927895239039654+8.599724012839173E-17i       1.0000000000000009
0.1                                               0.014931507866348379+3.4019088618308177E-17i      0.01493150786634838+3.4019088618308177E-17i       0.9999999999999998
0.1                                               0.018013227080376407+4.443440718175373E-16i       0.018013227080376407+4.443440718175373E-16i       1
0.1                                               0.025996955777650294+5.145709733435708E-16i       0.025996955777650297+5.145709733435708E-16i       1.0000000000000002
0.1                                               0.026848748586312768-3.343766450370392E-16i       0.026848748586312768-3.3437664503703927E-16i      0.9999999999999994
0.1                                               0.029915436263117393-6.801962471390543E-18i       0.029915436263117393-6.801962471390544E-18i       0.9999999999999996
0.1                                               0.03542780328677614+2.5137769086942293E-17i       0.03542780328677614+2.5137769086942293E-17i       0.9999999999999994
0.1                                               0.03681139408159456+2.5473079224643354E-16i       0.03681139408159456+2.5473079224643354E-16i       1
0.1                                               0.043744401442816244-4.634747432419126E-16i       0.043744401442816244-4.634747432419126E-16i       0.9999999999999982
0.1                                               0.04736082464510302-7.706924485912145E-16i        0.04736082464510302-7.706924485912145E-16i        1.0000000000000009
0.1                                               0.04980828479031476-6.454067974850015E-17i        0.04980828479031476-6.454067974850015E-17i        1.0000000000000004
0.1                                               0.051786571814761304+1.6248012058940177E-16i      0.05178657181476131+1.624801205894018E-16i        1.0000000000000007
0.1                                               0.05764543623861251+1.8949209463440406E-15i       0.05764543623861252+1.8949209463440406E-15i       1.0000000000000009
0.1                                               0.05953938311308276+1.614615601988172E-16i        0.05953938311308277+1.614615601988172E-16i        1.0000000000000002
0.1                                               0.062386149619826                                 0.062386149619826005                              0.9999999999999996
0.1                                               0.06698148728950006-4.296045441365269E-16i        0.06698148728950006-4.296045441365269E-16i        1.0000000000000024
0.1                                               0.06765067606355533-5.675056278259535E-16i        0.06765067606355533-5.675056278259536E-16i        1.0000000000000004
0.1                                               0.07325704783757112-3.9606256051563415E-16i       0.07325704783757112-3.9606256051563415E-16i       1
0.1                                               0.07408756912535658+8.359871164989029E-17i        0.07408756912535658+8.35987116498903E-17i         0.999999999999999
0.1                                               0.07736558602740744+4.4404793078174825E-16i       0.07736558602740744+4.4404793078174825E-16i       0.9999999999999999
0.1                                               0.08078505569850594+3.825458904914079E-16i        0.08078505569850594+3.825458904914079E-16i        0.9999999999999988
0.1                                               0.08434091810189832-1.186903184722536E-15i        0.08434091810189832-1.186903184722536E-15i        1.000000000000003
0.1                                               0.08505516555825396+1.9533086685409063E-15i       0.08505516555825396+1.9533086685409063E-15i       1.0000000000000004
0.1                                               0.08649254148409828-4.85187675055873E-17i         0.08649254148409828-4.851876750558731E-17i        1.0000000000000004
0.1                                               0.08675994099204723+1.2019561143612862E-15i       0.08675994099204723+1.2019561143612862E-15i       1
0.1                                               0.08718319831687987+1.8173906261508092E-16i       0.08718319831687989+1.8173906261508092E-16i       0.9999999999999997
0.1                                               0.09233789297939343-5.624977663758164E-16i        0.09233789297939345-5.624977663758164E-16i        1.0000000000000002
0.1                                               0.09589025831275322-1.0983045320443086E-14i       0.09589025831275322-1.0983045320443086E-14i       0.9999999999999976
0.1                                               0.09631953245395013-4.809208245808886E-14i        0.09631953245395013-4.809208245808886E-14i        1
0.1                                               0.09876029861309102+1.3150904812670253E-12i       0.09876029861309102+1.3150904812670253E-12i       0.9999999999999999
0.1                                               0.09956059378021175+1.2822281374026576E-10i       0.09956059378021176+1.2822281374026576E-10i       0.9999999999999991
0.2                                               -0.06169041865641667-5.407823868484879E-15i       -0.061690418656416675-5.4078238684848795E-15i     0.9999999999999989
0.2                                               -0.050816404674504406-6.793968070789965E-16i      -0.05081640467450441-6.793968070789965E-16i       0.9999999999999998
0.2                                               -0.04021862632701659+1.822701422259421E-15i       -0.04021862632701659+1.822701422259421E-15i       0.9999999999999987
0.2                                               -0.029885651278965975-1.7309807273344003E-16i     -0.029885651278965975-1.7309807273344003E-16i     1.000000000000002
0.2                                               -0.01980912815717996-2.729985887186596E-16i       -0.01980912815717996-2.7299858871865965E-16i      1.0000000000000022
0.2                                               -0.009983331491583147+4.401418158290483E-17i      -0.009983331491583147+4.4014181582904835E-17i     1.0000000000000007
0.2                                               -0.007921792444461798-2.936624807670572E-16i      -0.0079217924444618-2.936624807670572E-16i        1.0000000000000018
0.2                                               -4.048841041107837E-4+1.7322754575750373E-18i     -4.048841041107837E-4+1.7322754575750373E-18i     1
0.2                                               0.003622828589150154-1.6612528708160717E-16i      0.003622828589150154-1.6612528708160717E-16i      0.9999999999999996
0.2                                               0.008927419638342357+3.8946737540224423E-17i      0.008927419638342357+3.8946737540224423E-17i      1.0000000000000004
0.2                                               0.01493231253813028                               0.014932312538130281                              1.000000000000002
0.2                                               0.018012696220550364+2.750381256575628E-16i       0.018012696220550364+2.750381256575628E-16i       0.9999999999999992
0.2                                               0.02599770559207927+7.648007000705608E-17i        0.025997705592079274+7.648007000705608E-17i       0.999999999999998
0.2                                               0.0268481706348543+2.123721662862173E-16i         0.026848170634854302+2.123721662862173E-16i       0.9999999999999998
0.2                                               0.029915641057100206-1.0832546812138999E-17i      0.02991564105710021-1.0832546812139E-17i          1.0000000000000004
0.2                                               0.03542718831506883-1.2174373537994177E-16i       0.03542718831506883-1.2174373537994177E-16i       1.0000000000000004
0.2                                               0.036812087123980944-1.3970084923720113E-15i      0.036812087123980944-1.3970084923720115E-15i      1.0000000000000009
0.2                                               0.04374375842293374+2.0402502854282325E-16i       0.04374375842293374+2.0402502854282325E-16i       0.9999999999999996
0.2                                               0.047361494109351324-2.4357903519087725E-16i      0.04736149410935133-2.4357903519087725E-16i       0.9999999999999979
0.2                                               0.04980780375289433+1.4103765159977347E-17i       0.04980780375289433+1.4103765159977347E-17i       1.000000000000002
0.2                                               0.05178591827661755-5.202931458089887E-16i        0.051785918276617555-5.202931458089887E-16i       0.9999999999999992
0.2                                               0.05764603063704028+1.797803243424894E-15i        0.05764603063704029+1.797803243424894E-15i        0.9999999999999993
0.2                                               0.059538691807519105+2.306434983439826E-16i       0.059538691807519105+2.306434983439826E-16i       1.000000000000001
0.2                                               0.06238816881996714-1.4707202300759923E-17i       0.06238816881996714-1.4707202300759923E-17i       1.0000000000000022
0.2                                               0.06698076656141196-9.262069800164603E-17i        0.06698076656141197-9.262069800164604E-17i        0.9999999999999989
0.2                                               0.06765134607001384+2.593201526851106E-16i        0.06765134607001384+2.593201526851106E-16i        0.9999999999999993
0.2                                               0.07325821339728382-6.983351656522801E-16i        0.07325821339728382-6.983351656522802E-16i        1.0000000000000018
0.2                                               0.07408615025153872+8.733758386736343E-16i        0.07408615025153872+8.733758386736343E-16i        0.9999999999999987
0.2                                               0.07736613068812026+1.1108141153565926E-15i       0.07736613068812026+1.1108141153565926E-15i       0.9999999999999992
0.2                                               0.08078854602616149+2.0762999973147257E-16i       0.08078854602616149+2.0762999973147257E-16i       0.9999999999999996
0.2                                               0.0843126350720795-6.77220898411384E-16i          0.0843126350720795-6.77220898411384E-16i          0.9999999999999966
0.2                                               0.08504515036978795+5.079101033520369E-17i        0.08504515036978796+5.07910103352037E-17i         1.0000000000000007
0.2                                               0.08653242866875782-1.2194728425609853E-16i       0.08653242866875782-1.2194728425609853E-16i       1.0000000000000007
0.2                                               0.08676046223873965+1.2787165969510852E-15i       0.08676046223873965+1.2787165969510854E-15i       0.999999999999999
0.2                                               0.08716070587358925+3.305292102423077E-17i        0.08716070587358925+3.305292102423077E-17i        0.9999999999999986
0.2                                               0.0924147026736213+2.648876988518058E-16i         0.0924147026736213+2.648876988518058E-16i         0.9999999999999994
0.2                                               0.09589075738911512-9.723935749591807E-15i        0.09589075738911512-9.723935749591807E-15i        0.9999999999999998
0.2                                               0.09632070303779344-8.010274589368194E-14i        0.09632070303779344-8.010274589368195E-14i        1.0000000000000009
0.2                                               0.09838127273632137+6.945525565649769E-13i        0.09838127273632137+6.945525565649769E-13i        0.9999999999999993
0.2                                               0.09956096295160821+1.5405691618178027E-10i       0.09956096295160821+1.5405691618178027E-10i       0.9999999999999992
0.30000000000000004                               -0.061689847493448136+4.976499560361972E-16i      -0.06168984749344814+4.976499560361973E-16i       0.9999999999999971
0.30000000000000004                               -0.0508161436597685+7.448951575191487E-16i        -0.0508161436597685+7.448951575191487E-16i        0.9999999999999989
0.30000000000000004                               -0.040218625828939425-6.082969997111545E-16i      -0.040218625828939425-6.082969997111545E-16i      1.0000000000000007
0.30000000000000004                               -0.029885868824911094+1.1456629496793904E-15i     -0.029885868824911097+1.1456629496793906E-15i     0.9999999999999998
0.30000000000000004                               -0.01980952831718405+7.708631489760106E-16i       -0.019809528317184053+7.708631489760106E-16i      1.0000000000000002
0.30000000000000004                               -0.009983885254369176+7.886029200344503E-16i      -0.009983885254369176+7.886029200344503E-16i      1.0000000000000007
0.30000000000000004                               -0.007920314301854678-2.085930993095358E-16i      -0.007920314301854678-2.085930993095358E-16i      1.0000000000000013
0.30000000000000004                               -4.055673146036859E-4+4.245322874986371E-18i      -4.055673146036859E-4+4.245322874986371E-18i      0.9999999999999997
0.30000000000000004                               0.0036242436157922914+2.958125751990002E-17i      0.003624243615792292+2.9581257519900027E-17i      0.9999999999999988
0.30000000000000004                               0.008926626992104489-3.096284973064044E-17i       0.008926626992104489-3.096284973064044E-17i       1.000000000000001
0.30000000000000004                               0.014933653666470939-1.0043268729124891E-16i      0.014933653666470939-1.0043268729124891E-16i      0.9999999999999994
0.30000000000000004                               0.018011811466683916-1.701049968999907E-16i       0.018011811466683916-1.7010499689999072E-16i      1.0000000000000016
0.30000000000000004                               0.025998955337239463+1.5615630988830818E-17i      0.025998955337239466+1.5615630988830818E-17i      0.9999999999999999
0.30000000000000004                               0.02684720742617369+8.68364549533555E-17i         0.026847207426173695+8.68364549533555E-17i        1.0000000000000009
0.30000000000000004                               0.029915982238059385                              0.029915982238059385                              0.9999999999999999
0.30000000000000004                               0.035426163401382105+1.503839765386654E-16i       0.035426163401382105+1.5038397653866542E-16i      0.9999999999999987
0.30000000000000004                               0.03681324231961956+1.2592228662209994E-16i       0.03681324231961956+1.2592228662209994E-16i       0.9999999999999992
0.30000000000000004                               0.043742686649140126+2.5901804078812147E-16i      0.043742686649140126+2.5901804078812147E-16i      1.0000000000000002
0.30000000000000004                               0.04736260954256975+2.388306569058245E-16i        0.04736260954256975+2.388306569058245E-16i        0.9999999999999997
0.30000000000000004                               0.04980700357708197+2.2897964765830784E-17i       0.04980700357708197+2.2897964765830788E-17i       1.0000000000000002
0.30000000000000004                               0.05178482822031985-5.634802291753867E-16i        0.05178482822031986-5.634802291753867E-16i        0.9999999999999989
0.30000000000000004                               0.05764702100804969-3.695034186220873E-15i        0.0576470210080497-3.695034186220873E-15i         1.000000000000001
0.30000000000000004                               0.059537542747735844+4.143232536227817E-16i       0.05953754274773585+4.143232536227817E-16i        0.999999999999999
0.30000000000000004                               0.06239153198423736                               0.06239153198423736                               1.0000000000000009
0.30000000000000004                               0.06697955217118202-1.5091636709597006E-16i       0.06697955217118202-1.5091636709597006E-16i       1.0000000000000018
0.30000000000000004                               0.06765246110494831+2.852965409222641E-16i        0.06765246110494831+2.8529654092226414E-16i       0.9999999999999979
0.30000000000000004                               0.07326015598436866+1.4371084263388746E-16i       0.07326015598436866+1.437108426338875E-16i        0.9999999999999986
0.30000000000000004                               0.07408389927497536+2.298069612372329E-16i        0.07408389927497536+2.298069612372329E-16i        0.9999999999999982
0.30000000000000004                               0.07736703781347765-9.144298629815082E-16i        0.07736703781347765-9.144298629815082E-16i        1.000000000000001
0.30000000000000004                               0.08079368065584479-6.852574840377107E-17i        0.08079368065584479-6.852574840377107E-17i        1
0.30000000000000004                               0.08426596292328982+2.621339199027303E-16i        0.08426596292328982+2.621339199027303E-16i        1.0000000000000016
0.30000000000000004                               0.08503142956246686-3.7051013593188006E-16i       0.08503142956246687-3.7051013593188006E-16i       1.0000000000000002
0.30000000000000004                               0.08659423872780508-6.557359553151735E-17i        0.08659423872780508-6.557359553151735E-17i        1.0000000000000007
0.30000000000000004                               0.0867625449041008-7.688111018677001E-16i         0.0867625449041008-7.688111018677002E-16i         1
0.30000000000000004                               0.08712769574750824-1.326158045310171E-16i        0.08712769574750824-1.326158045310171E-16i        0.9999999999999984
0.30000000000000004                               0.09253402314102041-5.320988570656043E-16i        0.09253402314102042-5.320988570656043E-16i        0.9999999999999984
0.30000000000000004                               0.09589160461755743-6.872095287406764E-15i        0.09589160461755744-6.872095287406765E-15i        0.9999999999999999
0.30000000000000004                               0.09632265379140824-7.952580067709137E-14i        0.09632265379140825-7.952580067709137E-14i        0.9999999999999996
0.30000000000000004                               0.0979528054125496-2.2038128749443398E-13i        0.09795280541254961-2.2038128749443398E-13i       1.0000000000000009
0.30000000000000004                               0.09956157827824474+3.7647589509031425E-11i       0.09956157827824474+3.7647589509031425E-11i       1.0000000000000007
0.4                                               -0.06168904787837093-4.068442500327873E-16i       -0.06168904787837093-4.068442500327873E-16i       1.0000000000000002
0.4                                               -0.05081577821617492-2.980814814151926E-15i       -0.05081577821617492-2.9808148141519263E-15i      1.0000000000000007
0.4                                               -0.04021862508429774+1.885591110025785E-15i       -0.04021862508429774+1.885591110025785E-15i       0.9999999999999998
0.4                                               -0.029886173329576993+6.105687181486133E-16i      -0.029886173329576996+6.105687181486133E-16i      0.9999999999999971
0.4                                               -0.0198100884792049-1.6096617254451695E-16i       -0.0198100884792049-1.6096617254451695E-16i       0.9999999999999998
0.4                                               -0.009984660462454567+4.169727732537647E-16i      -0.009984660462454567+4.1697277325376477E-16i     0.9999999999999999
0.4                                               -0.007918244900541285-3.017645622389855E-16i      -0.007918244900541285-3.017645622389855E-16i      0.9999999999999997
0.4                                               -4.065237573357E-4-2.0737388279873603E-18i        -4.0652375733570006E-4-2.0737388279873603E-18i    0.9999999999999999
0.4                                               0.003626224667223496-4.71648494105379E-17i        0.0036262246672234964-4.71648494105379E-17i       0.9999999999999999
0.4                                               0.008925517332677352-3.244077503885254E-18i       0.008925517332677352-3.2440775038852545E-18i      0.9999999999999981
0.4                                               0.014935531264438792+4.464524139290231E-17i       0.014935531264438792+4.4645241392902315E-17i      1.0000000000000024
0.4                                               0.018010572837661415+5.526409165389027E-16i       0.018010572837661415+5.526409165389027E-16i       0.9999999999999989
0.4                                               0.026000705094496743+5.164970464393184E-16i       0.026000705094496746+5.164970464393184E-16i       1.000000000000002
0.4                                               0.026845859024489105-2.0034625450121028E-16i      0.02684585902448911-2.003462545012103E-16i        0.9999999999999986
0.4                                               0.029916459595596356+1.5086616475679335E-17i      0.029916459595596356+1.5086616475679338E-17i      0.9999999999999969
0.4                                               0.03542472860276753+8.77320418660166E-17i         0.03542472860276754+8.773204186601661E-17i        0.9999999999999967