% Model:              PROYECTO.mph
% Version:            COMSOL 5.6.0.280
% Date:               Jul 11 2026, 14:53
% Table:              Tabla 4 - Valor propio
% R_1 (nm)                                        lambda                                            Energía propia (meV)                              Probabilidad total (1)
7                                                 -0.02063255062960273                              -20.63255062960273                                1.0000000000000024
7                                                 -0.01290429428330668                              -12.904294283306678                               1.0000000000000013
7                                                 -0.00542005421459163                              -5.420054214591629                                1.0000000000000002
7                                                 0.0018198969026454737                             1.8198969026454734                                1.0000000000000022
7                                                 0.008813404202801328                              8.813404202801326                                 1.0000000000000018
7                                                 0.015556037313496612                              15.55603731349661                                 0.9999999999999993
7                                                 0.022040574985543113                              22.040574985543113                                1.0000000000000002
7                                                 0.028256199086961142                              28.256199086961136                                0.9999999999999974
7                                                 0.03132209264486384                               31.322092644863833                                0.9999999999999998
7                                                 0.034186913286232135                              34.186913286232134                                0.9999999999999994
7                                                 0.03941223580199059                               39.41223580199058                                 1
7                                                 0.039811259848988145                              39.81125984898814                                 1.0000000000000013
7                                                 0.04507812255412377                               45.07812255412377                                 1.0000000000000007
7                                                 0.04727717782471058                               47.27717782471058                                 0.9999999999999989
7                                                 0.05002767329839498                               50.02767329839497                                 1.0000000000000009
7                                                 0.05401058265422544                               54.01058265422543                                 1.0000000000000002
7                                                 0.05490526686615733                               54.90526686615732                                 1.0000000000000044
7                                                 0.05905938204924566                               59.05938204924565                                 0.9999999999999998
7                                                 0.06018306703996668                               60.18306703996667                                 1.0000000000000002
7                                                 0.06228356563674364                               62.28356563674364                                 0.9999999999999982
7                                                 0.06843525327938779                               68.43525327938778                                 0.9999999999999988
7                                                 0.06849232586697566                               68.49232586697566                                 1.0000000000000007
7                                                 0.0693972013589213                                69.3972013589213                                  1.0000000000000016
7                                                 0.07622841200211136                               76.22841200211136                                 0.9999999999999996
7                                                 0.07934545328343717                               79.34545328343717                                 0.9999999999999998
7.2                                               -0.02063255082739429                              -20.632550827394287                               0.9999999999999997
7.2                                               -0.01290429424461459                              -12.904294244614588                               0.9999999999999956
7.2                                               -0.005420054132871291                             -5.42005413287129                                 1.0000000000000024
7.2                                               0.0018198969324118158                             1.8198969324118157                                1.0000000000000033
7.2                                               0.00881340425094218                               8.81340425094218                                  0.9999999999999962
7.2                                               0.015556037538010478                              15.556037538010477                                1
7.2                                               0.02204057545383925                               22.04057545383925                                 0.9999999999999984
7.2                                               0.028256199493642734                              28.256199493642733                                0.9999999999999997
7.2                                               0.03132209168526408                               31.322091685264077                                0.9999999999999993
7.2                                               0.03418691348020589                               34.18691348020588                                 1.000000000000001
7.2                                               0.03941223575545213                               39.41223575545212                                 1.000000000000001
7.2                                               0.03981125988067894                               39.81125988067893                                 0.9999999999999983
7.2                                               0.04507812253709654                               45.07812253709653                                 0.9999999999999986
7.2                                               0.04727717780953004                               47.27717780953003                                 0.9999999999999996
7.2                                               0.05002767328348734                               50.02767328348733                                 0.9999999999999976
7.2                                               0.05401058257619318                               54.01058257619317                                 1
7.2                                               0.05490526666616274                               54.90526666616273                                 0.9999999999999991
7.2                                               0.059059382094375355                              59.05938209437535                                 0.9999999999999992
7.2                                               0.06018306694309328                               60.18306694309327                                 1.0000000000000009
7.2                                               0.062283565521383664                              62.283565521383665                                1.0000000000000004
7.2                                               0.06843525332598169                               68.43525332598168                                 1.0000000000000007
7.2                                               0.06849232581858525                               68.49232581858524                                 0.9999999999999994
7.2                                               0.06939720181907655                               69.39720181907654                                 0.9999999999999986
7.2                                               0.0762284129095052                                76.2284129095052                                  0.999999999999999
7.2                                               0.07934543140675365                               79.34543140675365                                 1.0000000000000013
7.4                                               -0.020632550374443698                             -20.632550374443696                               0.9999999999999986
7.4                                               -0.012904294204115416                             -12.904294204115415                               1.0000000000000007
7.4                                               -0.0054200540731291075                            -5.420054073129107                                1.0000000000000007
7.4                                               0.0018198971366200217                             1.8198971366200216                                1.0000000000000007
7.4                                               0.008813404461359267                              8.813404461359266                                 0.9999999999999989
7.4                                               0.015556037591692454                              15.556037591692453                                0.9999999999999976
7.4                                               0.022040575320513928                              22.040575320513927                                1
7.4                                               0.028256199373698235                              28.25619937369823                                 0.999999999999998
7.4                                               0.031322092508590124                              31.32209250859012                                 1.0000000000000036
7.4                                               0.03418691352892314                               34.186913528923135                                0.9999999999999986
7.4                                               0.03941223552840844                               39.41223552840843                                 0.9999999999999999
7.4                                               0.039811260170978476                              39.81126017097847                                 1.0000000000000007
7.4                                               0.04507812304652593                               45.07812304652592                                 1.0000000000000004
7.4                                               0.04727717778593139                               47.277177785931386                                0.9999999999999981
7.4                                               0.05002767382749106                               50.02767382749106                                 1.000000000000001
7.4                                               0.054010583089089605                              54.0105830890896                                  0.9999999999999976
7.4                                               0.054905267120093915                              54.9052671200939                                  1.0000000000000004
7.4                                               0.05905938266451564                               59.05938266451563                                 0.9999999999999987
7.4                                               0.060183067447697115                              60.183067447697105                                1.0000000000000002
7.4                                               0.062283565860321986                              62.28356586032198                                 0.9999999999999991
7.4                                               0.06843525383467439                               68.43525383467438                                 1
7.4                                               0.06849232628295736                               68.49232628295735                                 0.9999999999999993
7.4                                               0.06939720164031211                               69.3972016403121                                  1.0000000000000004
7.4                                               0.07622841219103481                               76.2284121910348                                  0.9999999999999983
7.4                                               0.07934540612847721                               79.3454061284772                                  1.0000000000000007
7.6                                               -0.02063255078871594                              -20.63255078871594                                1.0000000000000002
7.6                                               -0.012904294767172947                             -12.904294767172944                               0.9999999999999982
7.6                                               -0.005420054860429929                             -5.4200548604299295                               0.9999999999999982
7.6                                               0.0018198961775266337                             1.8198961775266336                                1.0000000000000016
7.6                                               0.008813403394975952                              8.81340339497595                                  1.000000000000001
7.6                                               0.015556036480051702                              15.5560364800517                                  0.9999999999999988
7.6                                               0.022040574066154145                              22.040574066154143                                1.000000000000001
7.6                                               0.028256197993853177                              28.256197993853174                                0.9999999999999998
7.6                                               0.03132209057868339                               31.322090578683387                                0.9999999999999994
7.6                                               0.034186912021061666                              34.186912021061666                                1.0000000000000016
7.6                                               0.039412233306187726                              39.41223330618772                                 1.000000000000002
7.6                                               0.039811258503268415                              39.81125850326841                                 1.0000000000000002
7.6                                               0.04507812125677279                               45.07812125677278                                 0.9999999999999979
7.6                                               0.04727717467330344                               47.277174673303435                                0.9999999999999986
7.6                                               0.05002767213919622                               50.02767213919621                                 0.9999999999999989
7.6                                               0.05401058171738087                               54.010581717380866                                1.0000000000000002
7.6                                               0.054905263500547384                              54.90526350054738                                 1.0000000000000018
7.6                                               0.059059381369990574                              59.05938136999057                                 0.9999999999999981
7.6                                               0.06018306649251009                               60.183066492510086                                1.0000000000000018
7.6                                               0.06228356174917706                               62.28356174917706                                 1.0000000000000038
7.6                                               0.06843525277664983                               68.43525277664983                                 1.0000000000000007
7.6                                               0.06849232517270706                               68.49232517270706                                 1.000000000000001
7.6                                               0.06939719729107394                               69.39719729107394                                 1.0000000000000016
7.6                                               0.07622840701287074                               76.22840701287073                                 0.9999999999999994
7.6                                               0.07934546979339176                               79.34546979339176                                 0.9999999999999986
7.8                                               -0.020632550720845508                             -20.632550720845504                               0.9999999999999983
7.8                                               -0.012904294601321559                             -12.904294601321558                               0.9999999999999987
7.8                                               -0.0054200539768861355                            -5.420053976886136                                1.0000000000000004
7.8                                               0.0018198970796101666                             1.8198970796101663                                1.000000000000001
7.8                                               0.008813404093304028                              8.813404093304028                                 1.0000000000000002
7.8                                               0.015556037196849476                              15.556037196849474                                0.999999999999998
7.8                                               0.022040575110707533                              22.040575110707533                                0.9999999999999987
7.8                                               0.028256199490454825                              28.256199490454822                                0.9999999999999991
7.8                                               0.0313220899838635                                31.3220899838635                                  1.0000000000000027
7.8                                               0.034186913690152185                              34.18691369015218                                 1.0000000000000027
7.8                                               0.03941223336526249                               39.41223336526249                                 0.9999999999999984
7.8                                               0.039811260231824075                              39.81126023182407                                 1
7.8                                               0.04507812294870526                               45.07812294870526                                 0.9999999999999986
7.8                                               0.04727717708570646                               47.277177085706455                                0.999999999999999
7.8                                               0.05002767372132231                               50.0276737213223                                  1.000000000000001
7.8                                               0.05401058265571605                               54.01058265571604                                 0.9999999999999998
7.8                                               0.05490526564757055                               54.905265647570545                                0.9999999999999973
7.8                                               0.05905938227198947                               59.05938227198946                                 0.9999999999999986
7.8                                               0.060183067056420736                              60.183067056420725                                0.9999999999999997
7.8                                               0.06228356316913738                               62.283563169137366                                1.0000000000000007
7.8                                               0.0684352535509544                                68.43525355095439                                 0.9999999999999992
7.8                                               0.06849232620200416                               68.49232620200415                                 1.0000000000000002
7.8                                               0.06939719908024175                               69.39719908024175                                 1.0000000000000002
7.8                                               0.07622840959642588                               76.22840959642586                                 1.0000000000000007
7.8                                               0.07934447976458513                               79.34447976458512                                 0.9999999999999987
7.999999999999999                                 -0.020632551018961012                             -20.63255101896101                                1.0000000000000007
7.999999999999999                                 -0.012904294719662715                             -12.904294719662714                               1.000000000000002
7.999999999999999                                 -0.0054200544475506846                            -5.420054447550684                                1.0000000000000013
7.999999999999999                                 0.001819896827290099                              1.8198968272900988                                0.9999999999999982
7.999999999999999                                 0.00881340435873132                               8.813404358731319                                 0.999999999999999
7.999999999999999                                 0.015556037697646727                              15.556037697646724                                0.999999999999999
7.999999999999999                                 0.022040575316170846                              22.040575316170845                                1.0000000000000004
7.999999999999999                                 0.02825619914078986                               28.25619914078986                                 0.9999999999999996
7.999999999999999                                 0.03132208782388242                               31.322087823882413                                0.999999999999999
7.999999999999999                                 0.03418691311619883                               34.186913116198824                                1.0000000000000004
7.999999999999999                                 0.03941223223961832                               39.41223223961831                                 1.0000000000000018
7.999999999999999                                 0.03981125981599041                               39.811259815990404                                1.0000000000000007
7.999999999999999                                 0.045078122712437316                              45.07812271243731                                 0.9999999999999991
7.999999999999999                                 0.04727717456380473                               47.27717456380473                                 0.9999999999999972
7.999999999999999                                 0.05002767351024721                               50.027673510247205                                0.9999999999999998
7.999999999999999                                 0.054010582288474974                              54.01058228847497                                 1.0000000000000018
7.999999999999999                                 0.05490526414271767                               54.90526414271767                                 1.0000000000000007
7.999999999999999                                 0.0590593821430844                                59.05938214308439                                 1.0000000000000002
7.999999999999999                                 0.06018306664942493                               60.18306664942492                                 1
7.999999999999999                                 0.06228356300940591                               62.2835630094059                                  0.9999999999999972
7.999999999999999                                 0.06843525348689103                               68.43525348689103                                 1
7.999999999999999                                 0.06849232586099516                               68.49232586099515                                 0.9999999999999989
7.999999999999999                                 0.06939719911180631                               69.3971991118063                                  1.0000000000000013
7.999999999999999                                 0.0762284077044364                                76.22840770443639                                 0.9999999999999971
7.999999999999999                                 0.07934430808060482                               79.3443080806048                                  0.9999999999999994
8.199999999999998                                 -0.020632550667849622                             -20.63255066784962                                0.9999999999999987
8.199999999999998                                 -0.01290429465245059                              -12.90429465245059                                1.0000000000000027
8.199999999999998                                 -0.005420054393135115                             -5.420054393135114                                1.0000000000000009
8.199999999999998                                 0.001819897009673263                              1.819897009673263                                 1.0000000000000018
8.199999999999998                                 0.008813404446793655                              8.813404446793653                                 1.0000000000000018
8.199999999999998                                 0.015556037523271657                              15.556037523271655                                1.0000000000000004
8.199999999999998                                 0.022040574983306846                              22.040574983306843                                0.9999999999999977
8.199999999999998                                 0.028256198900428617                              28.256198900428615                                1.0000000000000018
8.199999999999998                                 0.03132208740091949                               31.322087400919486                                0.9999999999999994
8.199999999999998                                 0.03418691298080556                               34.18691298080556                                 1.0000000000000013
8.199999999999998                                 0.039412231595479824                              39.41223159547982                                 0.9999999999999988
8.199999999999998                                 0.039811259414751304                              39.811259414751305                                0.9999999999999994
8.199999999999998                                 0.045078122113688314                              45.07812211368831                                 1
8.199999999999998                                 0.0472771737727254                                47.27717377272539                                 1.0000000000000004
8.199999999999998                                 0.05002767307729906                               50.027673077299056                                0.9999999999999997
8.199999999999998                                 0.054010581960093305                              54.0105819600933                                  1
8.199999999999998                                 0.05490526378704102                               54.905263787041015                                0.999999999999999
8.199999999999998                                 0.05905938191763464                               59.05938191763464                                 0.9999999999999999
8.199999999999998                                 0.06018306652388254                               60.18306652388254                                 1.0000000000000024
8.199999999999998                                 0.06228356179803752                               62.28356179803752                                 1.0000000000000004
8.199999999999998                                 0.06843525322081884                               68.43525322081884                                 1.0000000000000016
8.199999999999998                                 0.06849232594156773                               68.49232594156773                                 1.000000000000001
8.199999999999998                                 0.06939719705161854                               69.39719705161853                                 0.999999999999999
8.199999999999998                                 0.0762284043034743                                76.22840430347429                                 1
8.199999999999998                                 0.0793453619621605                                79.34536196216048                                 1.0000000000000013
8.4                                               -0.020632550537766303                             -20.632550537766303                               0.9999999999999983