% Model:              PROYECTO.mph
% Version:            COMSOL 5.6.0.280
% Date:               Jul 17 2026, 02:13
% Table:              Tabla 7 - Valor propio 3
% B (T)                                           n                                                 lambda                                            Energía propia (meV)                              Probabilidad total (1)
0.2                                               1                                                 0.011884323974310607                              11.884323974310606                                0.9999999999999991
0.2                                               1                                                 0.013637709433711606                              13.637709433711604                                1.0000000000000013
0.2                                               1                                                 0.014235897591213728                              14.235897591213725                                1.000000000000001
0.2                                               1                                                 0.015822877259698484                              15.822877259698483                                1.0000000000000007
0.2                                               1                                                 0.016487985116130727                              16.487985116130723                                1
0.2                                               1                                                 0.016514070699898256                              16.514070699898255                                1.0000000000000007
0.2                                               1                                                 0.019493062080468554                              19.49306208046855                                 1.0000000000000016
0.2                                               1                                                 0.020523221755587504                              20.5232217555875                                  1.0000000000000016
0.2                                               1                                                 0.024708479768531744                              24.708479768531742                                0.9999999999999991
0.2                                               1                                                 0.026087987393607126-3.311536102332637E-18i       26.087987393607126-3.3115361023326365E-15i        0.9999999999999981
0.2                                               1                                                 0.03138253930316308                               31.382539303163075                                0.9999999999999994
0.2                                               1                                                 0.03310897786945427                               33.108977869454264                                0.9999999999999996
0.2                                               1                                                 0.03944203721609188                               39.442037216091876                                0.9999999999999998
0.2                                               1                                                 0.041514653534482956                              41.51465353448295                                 1.0000000000000004
0.2                                               1                                                 0.04660148209140912                               46.60148209140912                                 1.0000000000000024
0.2                                               1                                                 0.04881316080650717                               48.81316080650716                                 0.9999999999999993
0.2                                               1                                                 0.051231659697923766+2.0540428296227418E-16i      51.23165969792376+2.0540428296227415E-13i         1.0000000000000018
0.2                                               1                                                 0.05303161581193615-1.101795895389017E-14i        53.03161581193614-1.101795895389017E-11i          0.999999999999999
0.2                                               1                                                 0.059423124358902686+5.113572754943307E-12i       59.423124358902676+5.113572754943306E-9i          0.9999999999999996
0.2                                               1                                                 0.062187354797337405-8.258508455130866E-8i        62.1873547973374-8.258508455130865E-5i            0.9999999999999991
0.2                                               1.5                                               0.011884812799254157                              11.884812799254156                                0.9999999999999998
0.2                                               1.5                                               0.01363772117045195                               13.637721170451949                                1.0000000000000009
0.2                                               1.5                                               0.014235940025856708                              14.235940025856706                                0.999999999999999
0.2                                               1.5                                               0.015822967416259576                              15.822967416259575                                1.0000000000000009
0.2                                               1.5                                               0.01649200809348078                               16.492008093480777                                0.9999999999999987
0.2                                               1.5                                               0.019493019089676933                              19.49301908967693                                 1.000000000000002
0.2                                               1.5                                               0.020523020311913304                              20.523020311913303                                1.0000000000000004
0.2                                               1.5                                               0.020750920138537313                              20.75092013853731                                 1.0000000000000056
0.2                                               1.5                                               0.024708482128209197                              24.708482128209194                                1.0000000000000016
0.2                                               1.5                                               0.026087989070675957                              26.087989070675956                                1.0000000000000009
0.2                                               1.5                                               0.03138253956233214                               31.382539562332138                                1.000000000000001
0.2                                               1.5                                               0.03310897809835478                               33.108978098354775                                0.9999999999999992
0.2                                               1.5                                               0.03944203730006786                               39.44203730006786                                 1
0.2                                               1.5                                               0.041514653618629375                              41.51465361862937                                 1.0000000000000007
0.2                                               1.5                                               0.048813160848924564                              48.81316084892456                                 0.999999999999999
0.2                                               1.5                                               0.05123165975134201                               51.231659751342                                   1.0000000000000022
0.2                                               1.5                                               0.05407882404766218                               54.07882404766217                                 1.0000000000000007
0.2                                               1.5                                               0.059423124388084295-6.351959893473266E-16i       59.42312438808429-6.351959893473266E-13i          1.0000000000000002
0.2                                               1.5                                               0.06188944208155231+6.828630858594225E-11i        61.8894420815523+6.828630858594224E-8i            0.9999999999999983
0.2                                               1.5                                               0.06218737094821154-1.321708032566835E-11i        62.18737094821154-1.3217080325668348E-8i          1.000000000000001
0.2                                               2                                                 0.011884925061008425                              11.884925061008424                                1.000000000000001
0.2                                               2                                                 0.013637727287264118                              13.637727287264116                                1.000000000000001
0.2                                               2                                                 0.014235950363559                                 14.235950363558999                                0.9999999999999996
0.2                                               2                                                 0.01582297328001102                               15.822973280011016                                1.0000000000000002
0.2                                               2                                                 0.016492016697326348                              16.492016697326346                                0.9999999999999991
0.2                                               2                                                 0.019493038554054792                              19.49303855405479                                 1
0.2                                               2                                                 0.02052319343555087                               20.523193435550866                                1
0.2                                               2                                                 0.022990109144063894                              22.99010914406389                                 1.0000000000000009
0.2                                               2                                                 0.02470848796412145                               24.708487964121446                                0.9999999999999984
0.2                                               2                                                 0.026087991730988608                              26.087991730988605                                0.9999999999999997
0.2                                               2                                                 0.03138253971535865                               31.382539715358647                                1.0000000000000004
0.2                                               2                                                 0.03310897821165909                               33.108978211659085                                0.999999999999999
0.2                                               2                                                 0.039442037290823496                              39.44203729082349                                 0.9999999999999999
0.2                                               2                                                 0.0415146536075635                                41.514653607563496                                0.9999999999999989
0.2                                               2                                                 0.04881316082595529                               48.813160825955286                                1.0000000000000002
0.2                                               2                                                 0.05123165972995795                               51.23165972995795                                 1.0000000000000002
0.2                                               2                                                 0.05834647160616998+3.703966902253944E-14i        58.34647160616998+3.703966902253944E-11i          0.9999999999999979
0.2                                               2                                                 0.05942312435798963-3.703254399579209E-11i        59.42312435798963-3.7032543995792084E-8i          0.9999999999999988
0.2                                               2                                                 0.06218737145042395-1.4789541306918542E-9i        62.187371450423946-1.4789541306918542E-6i         0.999999999999999
0.2                                               2                                                 0.06293342042794685+2.5038075940446774E-8i        62.933420427946835+2.503807594044677E-5i          1.0000000000000002
0.2                                               2.5                                               0.011884972000463873                              11.884972000463872                                1.0000000000000002
0.2                                               2.5                                               0.01363773103479364                               13.637731034793639                                1.0000000000000004
0.2                                               2.5                                               0.0142359555027472                                14.235955502747197                                0.9999999999999986
0.2                                               2.5                                               0.015822975715014814                              15.822975715014811                                1.0000000000000004
0.2                                               2.5                                               0.01649201986644723                               16.492019866447226                                1.0000000000000024
0.2                                               2.5                                               0.01949304149781153                               19.49304149781153                                 0.9999999999999996
0.2                                               2.5                                               0.02052319940779207                               20.523199407792067                                0.9999999999999997
0.2                                               2.5                                               0.024249515140696426                              24.249515140696424                                1.0000000000000004
0.2                                               2.5                                               0.02470851669884422                               24.708516698844218                                1.0000000000000007
0.2                                               2.5                                               0.026087996215549705                              26.0879962155497                                  0.9999999999999989
0.2                                               2.5                                               0.031382539875574045                              31.38253987557404                                 1.0000000000000018
0.2                                               2.5                                               0.033108978330237224                              33.10897833023722                                 1.0000000000000009
0.2                                               2.5                                               0.03944203730650043                               39.442037306500424                                0.9999999999999999
0.2                                               2.5                                               0.0415146536213827                                41.51465362138269                                 0.9999999999999986
0.2                                               2.5                                               0.0488131608293639                                48.813160829363895                                1.000000000000001
0.2                                               2.5                                               0.05123165973350401                               51.23165973350401                                 1
0.2                                               2.5                                               0.059423124367876445+1.392191831460903E-15i       59.42312436787643+1.392191831460903E-12i          1.0000000000000009
0.2                                               2.5                                               0.06091865068524489+2.6423008623721527E-15i       60.918650685244884+2.6423008623721528E-12i        0.9999999999999988
0.2                                               2.5                                               0.06218737062164213-4.198946472948338E-13i        62.187370621642124-4.198946472948338E-10i         1.0000000000000018
0.2                                               2.5                                               0.06293378147835213+1.4291027227864934E-11i       62.933781478352124+1.4291027227864933E-8i         0.9999999999999991
0.2                                               3                                                 0.01188499669105593                               11.884996691055928                                0.9999999999999979
0.2                                               3                                                 0.013637733532498003                              13.637733532498002                                1.0000000000000002
0.2                                               3                                                 0.01423595852212077                               14.23595852212077                                 1.000000000000002
0.2                                               3                                                 0.015822977059379045                              15.822977059379044                                0.9999999999999989
0.2                                               3                                                 0.01649202152038201                               16.492021520382007                                0.9999999999999996
0.2                                               3                                                 0.019493042632661495                              19.493042632661492                                1.0000000000000002
0.2                                               3                                                 0.020523201380669473                              20.52320138066947                                 1.0000000000000018
0.2                                               3                                                 0.024708416560012825                              24.70841656001282                                 1.000000000000001
0.2                                               3                                                 0.025004878586358567                              25.004878586358565                                1.0000000000000027
0.2                                               3                                                 0.0260880039872618                                26.088003987261796                                0.9999999999999998
0.2                                               3                                                 0.03138254000340966                               31.38254000340966                                 1.000000000000001
0.2                                               3                                                 0.033108978420520366                              33.108978420520366                                1.0000000000000002
0.2                                               3                                                 0.03944203731695815                               39.44203731695815                                 0.9999999999999993
0.2                                               3                                                 0.041514653630448074                              41.51465363044807                                 1.0000000000000022
0.2                                               3                                                 0.04881316083149791                               48.8131608314979                                  1.0000000000000022
0.2                                               3                                                 0.0512316597356598                                51.2316597356598                                  1.0000000000000004
0.2                                               3                                                 0.05942312436908776-1.6484228922120492E-16i       59.42312436908776-1.648422892212049E-13i          0.9999999999999997
0.2                                               3                                                 0.06218737061839531+9.06174042978605E-13i         62.187370618395306+9.061740429786048E-10i         1.0000000000000002
0.2                                               3                                                 0.0625489056995537-2.175479848838157E-12i         62.548905699553686-2.1754798488381566E-9i         0.9999999999999972
0.2                                               3                                                 0.06293579696750098-1.2706476406114605E-11i       62.93579696750098-1.2706476406114603E-8i          0.9999999999999987
0.4                                               1                                                 0.0118867197768769                                11.8867197768769                                  0.9999999999999998
0.4                                               1                                                 0.013598158445230962                              13.598158445230961                                1.0000000000000009
0.4                                               1                                                 0.014355741478087755                              14.355741478087754                                0.9999999999999981
0.4                                               1                                                 0.015521980903166338                              15.521980903166336                                0.9999999999999998
0.4                                               1                                                 0.016510239137479385                              16.510239137479385                                1.0000000000000009
0.4                                               1                                                 0.01685948506607561                               16.859485066075607                                1.000000000000001
0.4                                               1                                                 0.01900908820344893                               19.00908820344893                                 0.9999999999999992
0.4                                               1                                                 0.021069302401784187                              21.069302401784185                                1.0000000000000007
0.4                                               1                                                 0.024049785627238293                              24.04978562723829                                 0.999999999999999
0.4                                               1                                                 0.026808775547706415                              26.80877554770641                                 0.9999999999999994
0.4                                               1                                                 0.03055072037051393                               30.550720370513925                                1
0.4                                               1                                                 0.03400358899735431                               34.003588997354306                                1.0000000000000013
0.4                                               1                                                 0.03843761777699093                               38.437617776990926                                1.0000000000000004
0.4                                               1                                                 0.042582846903110705                              42.5828469031107                                  0.999999999999999
0.4                                               1                                                 0.046597640140034834                              46.59764014003483                                 0.9999999999999981
0.4                                               1                                                 0.0476363720644565                                47.63637206445649                                 1.0000000000000009
0.4                                               1                                                 0.05247336813865182-1.6005068042312537E-15i       52.47336813865181-1.6005068042312536E-12i         0.9999999999999998
0.4                                               1                                                 0.053042915705798395-6.887260931234948E-15i       53.04291570579839-6.887260931234948E-12i          1
0.4                                               1                                                 0.05807408469848792+6.123238424060727E-13i        58.07408469848791+6.123238424060726E-10i          1
0.4                                               1                                                 0.06293738281237493-2.74244702526542E-8i          62.93738281237492-2.74244702526542E-5i            1.0000000000000004
0.4                                               1.5                                               0.011887205187385785                              11.887205187385785                                0.9999999999999999
0.4                                               1.5                                               0.013598173669412086                              13.598173669412084                                0.9999999999999994
0.4                                               1.5                                               0.014355794603108152                              14.35579460310815                                 1.0000000000000007
0.4                                               1.5                                               0.015522032753028214                              15.522032753028212                                0.9999999999999981
0.4                                               1.5                                               0.016859177616659463                              16.859177616659462                                0.9999999999999989
0.4                                               1.5                                               0.019009053671517548                              19.009053671517545                                1
0.4                                               1.5                                               0.020751030318788888                              20.751030318788885                                0.9999999999999976
0.4                                               1.5                                               0.021069437820292927                              21.069437820292926                                1.0000000000000004
0.4                                               1.5                                               0.024049788539309946                              24.049788539309944                                0.9999999999999989
0.4                                               1.5                                               0.026808777004269965                              26.80877700426996                                 0.9999999999999991
0.4                                               1.5                                               0.030550720649448804                              30.5507206494488                                  0.9999999999999997
0.4                                               1.5                                               0.03400358921475634                               34.00358921475633                                 0.9999999999999988
0.4                                               1.5                                               0.038437617861813114                              38.43761786181311                                 1.0000000000000004
0.4                                               1.5                                               0.042582846988787115                              42.58284698878711                                 0.9999999999999987
0.4                                               1.5                                               0.04763637209719657                               47.63637209719656                                 0.9999999999999997
0.4                                               1.5                                               0.0524733682247356                                52.473368224735594                                1.0000000000000016