% Model:              PROYECTO.mph
% Version:            COMSOL 5.6.0.280
% Date:               Jul 11 2026, 13:52
% Table:              Tabla 4 - Valor propio
% n                                               lambda                                            Energía propia (meV)                              Probabilidad total (1)
1                                                 0.01716418576618689                               17.16418576618689                                 0.9999999999999996
1                                                 0.017950206986274225                              17.950206986274225                                1.0000000000000018
1                                                 0.017950210690722043                              17.95021069072204                                 1.0000000000000009
1                                                 0.020299384573235435                              20.299384573235432                                1.0000000000000022
1                                                 0.02029938517759848                               20.299385177598477                                0.9999999999999989
1                                                 0.024185653615149724                              24.185653615149725                                0.9999999999999992
1                                                 0.02418565575594732                               24.185655755947316                                0.9999999999999989
1                                                 0.029567235620406473                              29.56723562040647                                 1.0000000000000013
1                                                 0.029567239075577595                              29.567239075577593                                0.9999999999999993
1                                                 0.03638911231939089                               36.38911231939089                                 0.9999999999999989
1                                                 0.03638911290629862                               36.389112906298614                                1
1                                                 0.04343489828538837                               43.434898285388364                                0.9999999999999996
1                                                 0.04458660687325453                               44.58660687325453                                 0.9999999999999994
1                                                 0.04458660835493858                               44.58660835493857                                 0.9999999999999999
1                                                 0.054089879661686185                              54.08987966168618                                 0.9999999999999996
1                                                 0.054089880769185236                              54.08988076918523                                 1.0000000000000016
1                                                 0.055005985902612686                              55.005985902612686                                0.999999999999998
1                                                 0.055073992764886504                              55.0739927648865                                  1.000000000000004
1                                                 0.06482881493344037                               64.82881493344036                                 0.9999999999999994
1                                                 0.06482881539531192                               64.8288153953119                                  0.9999999999999998
1                                                 0.06837197691097323                               68.37197691097322                                 1.0000000000000004
1                                                 0.06920425197683745                               69.20425197683745                                 0.9999999999999991
1                                                 0.06920427528924025                               69.20427528924024                                 0.9999999999999993
1                                                 0.07169093667286708                               71.69093667286707                                 1.0000000000000009
1                                                 0.07169134876888833                               71.69134876888832                                 1
1                                                 0.0758516477435969                                75.85164774359689                                 0.9999999999999996
1                                                 0.0758516561496001                                75.85165614960009                                 0.9999999999999997
1                                                 0.07673759550653622                               76.73759550653621                                 0.9999999999999982
1                                                 0.07673759686331799                               76.73759686331799                                 1.0000000000000002
1                                                 0.081677159091948                                 81.677159091948                                   0.9999999999999999
1                                                 0.0816771720830771                                81.67717208307708                                 0.9999999999999997
1                                                 0.08356338582896614                               83.56338582896612                                 0.9999999999999998
1                                                 0.085574004639654                                 85.57400463965399                                 0.9999999999999973
1                                                 0.08917087875865194                               89.17087875865194                                 1.0000000000000018
1                                                 0.08917088466855103                               89.17088466855101                                 0.9999999999999997
1                                                 0.0897581855470956                                89.75818554709558                                 0.9999999999999981
1                                                 0.08975818773825037                               89.75818773825036                                 1.0000000000000018
1                                                 0.09833029270747624                               98.33029270747623                                 1.0000000000000027
1                                                 0.09833029906186365                               98.33029906186364                                 0.9999999999999999
1                                                 0.10384222092010129                               103.84222092010128                                1.0000000000000018
1                                                 0.10384222698008364                               103.84222698008362                                0.9999999999999996
1                                                 0.1091454981366604                                109.1454981366604                                 0.999999999999999
1                                                 0.10914550386628852                               109.14550386628851                                1.0000000000000009
1                                                 0.11895129335287087                               118.95129335287086                                1.000000000000001
1                                                 0.1189512939650562                                118.9512939650562                                 0.9999999999999999
1                                                 0.12159586601809468                               121.59586601809467                                1.0000000000000002
1                                                 0.12159587433231758                               121.59587433231758                                1.0000000000000002
1                                                 0.12614440391187992                               126.1444039118799                                 1.0000000000000002
1                                                 0.1261602778486643                                126.16027784866428                                0.9999999999999989
1                                                 0.13505596486045368                               135.05596486045366                                1.0000000000000016
1.2                                               0.01716418563538144                               17.16418563538144                                 1.0000000000000029
1.2                                               0.01795020696481392                               17.950206964813916                                1.0000000000000007
1.2                                               0.017950210622766555                              17.95021062276655                                 0.9999999999999998
1.2                                               0.020299384565170303                              20.2993845651703                                  0.9999999999999996
1.2                                               0.020299385174136583                              20.29938517413658                                 0.9999999999999989
1.2                                               0.024185653614437877                              24.18565361443787                                 0.9999999999999996
1.2                                               0.024185655755296118                              24.185655755296114                                1.0000000000000004
1.2                                               0.02956723562032676                               29.567235620326755                                0.9999999999999996
1.2                                               0.029567239075420623                              29.567239075420616                                0.9999999999999994
1.2                                               0.036389112319342956                              36.38911231934295                                 0.9999999999999983
1.2                                               0.03638911290624791                               36.38911290624791                                 0.9999999999999993
1.2                                               0.043380010005797526                              43.380010005797516                                0.9999999999999992
1.2                                               0.04458660687322006                               44.586606873220056                                1.0000000000000009
1.2                                               0.044586608354897195                              44.586608354897194                                1.0000000000000002
1.2                                               0.05408987966165215                               54.08987966165214                                 1.0000000000000009
1.2                                               0.05408988076915056                               54.089880769150554                                1.000000000000001
1.2                                               0.05498543034248512                               54.98543034248512                                 1.0000000000000013
1.2                                               0.05500972580661618                               55.009725806616174                                0.9999999999999981
1.2                                               0.0648288149334095                                64.82881493340949                                 1.0000000000000004
1.2                                               0.06482881539528401                               64.82881539528401                                 1.0000000000000009
1.2                                               0.06837197023872255                               68.37197023872254                                 0.9999999999999989
1.2                                               0.06920425019455877                               69.20425019455875                                 0.9999999999999992
1.2                                               0.06920425218541526                               69.20425218541526                                 1.000000000000001
1.2                                               0.07169093522807832                               71.6909352280783                                  1.000000000000001
1.2                                               0.07169134132584773                               71.69134132584772                                 1.0000000000000004
1.2                                               0.07585164763358919                               75.85164763358918                                 1.0000000000000002
1.2                                               0.07585165607344983                               75.85165607344983                                 0.9999999999999989
1.2                                               0.07673759550651388                               76.73759550651387                                 1.0000000000000027
1.2                                               0.07673759686329526                               76.73759686329525                                 1.000000000000001
1.2                                               0.08167715908749541                               81.67715908749541                                 0.9999999999999992
1.2                                               0.08167717207228814                               81.67717207228813                                 0.9999999999999989
1.2                                               0.083557304841881                                 83.55730484188099                                 1.0000000000000009
1.2                                               0.0855329539913507                                85.5329539913507                                  0.9999999999999954
1.2                                               0.08917087875725814                               89.17087875725814                                 1.0000000000000002
1.2                                               0.08917088466675267                               89.17088466675266                                 0.9999999999999989
1.2                                               0.08975818554707987                               89.75818554707986                                 0.9999999999999988
1.2                                               0.08975818773823516                               89.75818773823515                                 0.9999999999999998
1.2                                               0.09833029270680575                               98.33029270680575                                 1.0000000000000016
1.2                                               0.09833029906107525                               98.33029906107525                                 0.9999999999999999
1.2                                               0.10384222092009163                               103.84222092009162                                0.9999999999999998
1.2                                               0.10384222698007389                               103.84222698007387                                0.9999999999999984
1.2                                               0.10914549813611482                               109.14549813611481                                0.9999999999999997
1.2                                               0.10914550386574015                               109.14550386574014                                0.9999999999999998
1.2                                               0.118951293352893                                 118.95129335289299                                0.9999999999999998
1.2                                               0.11895129396505064                               118.95129396505062                                0.9999999999999996
1.2                                               0.12159586601757333                               121.59586601757333                                1.0000000000000018
1.2                                               0.12159587433185282                               121.5958743318528                                 0.9999999999999993
1.2                                               0.12614036330463244                               126.14036330463242                                0.9999999999999997
1.2                                               0.12614233853247428                               126.14233853247427                                1.000000000000004
1.2                                               0.13505595925069144                               135.05595925069144                                1.0000000000000007
1.4                                               0.017164185454819444                              17.164185454819442                                0.9999999999999998
1.4                                               0.017950206896104576                              17.950206896104575                                1.0000000000000029
1.4                                               0.017950210582048085                              17.950210582048083                                0.9999999999999997
1.4                                               0.020299384560247755                              20.299384560247752                                1.0000000000000007
1.4                                               0.020299385168088185                              20.299385168088182                                0.9999999999999992
1.4                                               0.02418565361392959                               24.18565361392959                                 0.9999999999999994
1.4                                               0.024185655754943775                              24.18565575494377                                 0.9999999999999981
1.4                                               0.029567235620291565                              29.567235620291562                                1
1.4                                               0.02956723907539298                               29.567239075392976                                0.9999999999999983
1.4                                               0.036389112319344705                              36.389112319344704                                1.0000000000000013
1.4                                               0.036389112906249715                              36.389112906249714                                1.0000000000000016
1.4                                               0.0432989558720152                                43.2989558720152                                  1.0000000000000004
1.4                                               0.04458660687322591                               44.586606873225904                                1.0000000000000007
1.4                                               0.04458660835490282                               44.58660835490282                                 0.9999999999999987
1.4                                               0.054089879661659075                              54.08987966165907                                 1.0000000000000004
1.4                                               0.054089880769158744                              54.08988076915873                                 0.9999999999999997
1.4                                               0.05489732213561127                               54.89732213561127                                 0.999999999999996
1.4                                               0.05498390180420154                               54.98390180420154                                 0.9999999999999996
1.4                                               0.06482881493341763                               64.82881493341763                                 0.9999999999999984
1.4                                               0.06482881539529142                               64.82881539529141                                 0.9999999999999983
1.4                                               0.06837195969964786                               68.37195969964786                                 0.9999999999999981
1.4                                               0.06920421933602786                               69.20421933602785                                 0.9999999999999993
1.4                                               0.06920424867176114                               69.20424867176114                                 0.9999999999999999
1.4                                               0.07169092726257095                               71.69092726257095                                 0.9999999999999983
1.4                                               0.07169133817908689                               71.69133817908688                                 1
1.4                                               0.07585164758096888                               75.85164758096887                                 0.999999999999999
1.4                                               0.07585165601901869                               75.85165601901869                                 0.9999999999999997
1.4                                               0.07673759550652084                               76.73759550652083                                 1.0000000000000007
1.4                                               0.07673759686330173                               76.73759686330172                                 1.000000000000003
1.4                                               0.08167715908461233                               81.67715908461233                                 1.0000000000000004
1.4                                               0.08167717207114548                               81.67717207114548                                 1.0000000000000009
1.4                                               0.08352355223099653                               83.52355223099651                                 1.0000000000000007
1.4                                               0.08551519926213247                               85.51519926213247                                 1.0000000000000002
1.4                                               0.08917087875712745                               89.17087875712745                                 1.0000000000000004
1.4                                               0.08917088466677385                               89.17088466677384                                 0.9999999999999992
1.4                                               0.08975818554708498                               89.75818554708496                                 0.9999999999999996
1.4                                               0.08975818773824003                               89.75818773824003                                 0.9999999999999991
1.4                                               0.09833029270685352                               98.33029270685351                                 1.0000000000000004
1.4                                               0.09833029906110582                               98.3302990611058                                  1.0000000000000033
1.4                                               0.10384222092009507                               103.84222092009506                                1
1.4                                               0.10384222698007753                               103.84222698007753                                1.0000000000000004
1.4                                               0.10914549813617173                               109.14549813617171                                0.9999999999999991
1.4                                               0.1091455038658186                                109.14550386581858                                0.9999999999999988
1.4                                               0.11895129335286735                               118.95129335286734                                0.9999999999999991
1.4                                               0.11895129396505288                               118.95129396505287                                0.999999999999999
1.4                                               0.12159586601767104                               121.59586601767103                                0.9999999999999992
1.4                                               0.12159587433194391                               121.5958743319439                                 1.0000000000000002
1.4                                               0.12612515310000633                               126.12515310000632                                1.000000000000003
1.4                                               0.1261397687794132                                126.1397687794132                                 0.9999999999999982
1.4                                               0.13505595758623268                               135.05595758623267                                0.9999999999999999
1.6                                               0.017164185681326813                              17.16418568132681                                 1.0000000000000004
1.6                                               0.017950206969284718                              17.950206969284718                                1.0000000000000002
1.6                                               0.0179502106519889                                17.9502106519889                                  1.0000000000000018
1.6                                               0.020299384569208392                              20.29938456920839                                 1.0000000000000007
1.6                                               0.020299385174596285                              20.29938517459628                                 0.9999999999999991
1.6                                               0.024185653614775746                              24.18565361477574                                 1.0000000000000018
1.6                                               0.024185655755399715                              24.18565575539971                                 1.0000000000000024
1.6                                               0.029567235620352364                              29.56723562035236                                 0.9999999999999999
1.6                                               0.02956723907545132                               29.56723907545132                                 0.9999999999999996
1.6                                               0.03638911231936687                               36.389112319366866                                0.9999999999999984
1.6                                               0.03638911290626741                               36.38911290626741                                 1.0000000000000002
1.6                                               0.04339819259240087                               43.39819259240086                                 1.0000000000000036
1.6                                               0.044586606873247114                              44.58660687324711                                 0.9999999999999998
1.6                                               0.04458660835492455                               44.58660835492454                                 0.9999999999999992
1.6                                               0.05408987966168326                               54.089879661683256                                1.0000000000000007
1.6                                               0.0540898807691809                                54.08988076918089                                 0.9999999999999994
1.6                                               0.055012442565809644                              55.01244256580964                                 1.0000000000000009
1.6                                               0.05501282151444618                               55.012821514446166                                0.9999999999999981
1.6                                               0.06482881493343948                               64.82881493343947                                 1.0000000000000013
1.6                                               0.06482881539531199                               64.82881539531199                                 1.0000000000000002
1.6                                               0.06837197229699976                               68.37197229699976                                 0.999999999999999
1.6                                               0.06920425082486                                  69.20425082485998                                 1.0000000000000007
1.6                                               0.06920426009015038                               69.20426009015037                                 0.9999999999999996
1.6                                               0.07169093362546401                               71.69093362546401                                 0.9999999999999992
1.6                                               0.07169134579481024                               71.69134579481023                                 1.0000000000000016
1.6                                               0.07585164769766234                               75.85164769766233                                 0.9999999999999996