% Model:              PROYECTO.mph
% Version:            COMSOL 5.6.0.280
% Date:               Jul 14 2026, 19:29
% Table:              Tabla 5 - Valor propio 1
% B (T)                                           lambda                                            Energía propia (eV)                               Probabilidad total (1)
0                                                 -0.020632775766213432                             -0.020632775766213432                             0.9999999999999988
0                                                 -0.012904529860849057                             -0.012904529860849057                             0.9999999999999998
0                                                 -0.0054203101666803755                            -0.0054203101666803755                            1.0000000000000016
0                                                 0.0018196217858827274                             0.0018196217858827274                             0.9999999999999991
0                                                 0.008813102218125854                              0.008813102218125854                              0.9999999999999984
0                                                 0.01555570757410521                               0.015555707574105212                              1.000000000000001
0                                                 0.0220402092790533                                0.022040209279053303                              1.0000000000000002
0                                                 0.02825579723116585                               0.02825579723116585                               0.9999999999999989
0                                                 0.03131875844728979                               0.03131875844728979                               1.0000000000000018
0                                                 0.03418645317332064                               0.03418645317332064                               1.0000000000000002
0                                                 0.03864107433102223                               0.03864107433102223                               1.000000000000003
0                                                 0.0394103469857136                                0.0394103469857136                                1
0                                                 0.03981077839715687                               0.03981077839715687                               0.9999999999999986
0                                                 0.04507759811111464                               0.04507759811111464                               0.9999999999999997
0                                                 0.047276553587383446                              0.047276553587383446                              0.999999999999999
0                                                 0.05002708591810453                               0.05002708591810453                               0.9999999999999999
0                                                 0.05361418764486124                               0.05361418764486124                               1.0000000000000009
0                                                 0.054009692852854015                              0.054009692852854015                              0.9999999999999994
0                                                 0.05491131289949897                               0.05491131289949898                               1.0000000000000013
0                                                 0.05835205519841834                               0.058352055198418344                              1.0000000000000027
0                                                 0.059058822776196625                              0.05905882277619663                               1.0000000000000013
0                                                 0.060182969669499896                              0.060182969669499896                              0.9999999999999978
0                                                 0.06228232508134378                               0.06228232508134378                               0.9999999999999982
0                                                 0.0684345776640462                                0.0684345776640462                                0.9999999999999991
0                                                 0.06849165714979863                               0.06849165714979864                               1.0000000000000007
0                                                 0.06939616157925652                               0.06939616157925652                               0.9999999999999981
0                                                 0.07622643899295348                               0.07622643899295348                               1.0000000000000002
0                                                 0.07934343131332508                               0.07934343131332508                               0.9999999999999994
0                                                 0.07934459341834288                               0.07934459341834288                               0.9999999999999998
0                                                 0.08274720327022131                               0.08274720327022132                               0.9999999999999997
0                                                 0.08389093711119369                               0.08389093711119369                               0.9999999999999983
0                                                 0.08564642516631564                               0.08564642516631565                               1.000000000000001
0                                                 0.08894649515674725                               0.08894649515674727                               1.000000000000001
0                                                 0.09173550331241208                               0.09173550331241208                               1.0000000000000007
0                                                 0.09173555047365743                               0.09173555047365743                               0.9999999999999987
0                                                 0.0947720990978245                                0.0947720990978245                                1.000000000000001
0                                                 0.10010476322950944                               0.10010476322950944                               0.9999999999999993
0                                                 0.10519832965630961                               0.10519832965630962                               0.9999999999999993
0                                                 0.10541296398961184                               0.10541296398961185                               1.0000000000000004
0                                                 0.10541339565670176                               0.10541339565670177                               0.9999999999999987
0.1                                               -0.02063265148305707-2.4611518202924526E-16i      -0.02063265148305707-2.461151820292453E-16i       1.0000000000000013
0.1                                               -0.012904450812961807-3.38780388562675E-17i       -0.012904450812961807-3.38780388562675E-17i       1.0000000000000022
0.1                                               -0.005420271480956501+1.5269934542402147E-17i     -0.005420271480956501+1.5269934542402147E-17i     1.0000000000000009
0.1                                               0.001819624991847582-8.217447461947715E-18i       0.0018196249918475823-8.217447461947715E-18i      1.0000000000000009
0.1                                               0.008813074733193815-7.677935116270531E-17i       0.008813074733193815-7.677935116270531E-17i       1.0000000000000002
0.1                                               0.015555653955526619+3.229832818405789E-17i       0.01555565395552662+3.229832818405789E-17i        0.9999999999999999
0.1                                               0.022040134027359173+8.216625288867716E-17i       0.022040134027359173+8.216625288867716E-17i       0.9999999999999993
0.1                                               0.028255703580588515-3.984080279525418E-17i       0.028255703580588515-3.984080279525418E-17i       1.0000000000000013
0.1                                               0.031319067713678636-2.3164854204761843E-17i      0.031319067713678636-2.3164854204761846E-17i      1.0000000000000002
0.1                                               0.03418635673024156+3.674051672739886E-17i        0.03418635673024156+3.674051672739886E-17i        1.0000000000000016
0.1                                               0.03864116061349913                               0.03864116061349913                               1.000000000000006
0.1                                               0.03941066957996277+1.7127722987016204E-17i       0.03941066957996277+1.7127722987016204E-17i       1.0000000000000016
0.1                                               0.03981057639851252+2.911719174855954E-17i        0.03981057639851252+2.911719174855954E-17i        0.999999999999999
0.1                                               0.045078180811849014-1.767157639848208E-17i       0.04507818081184902-1.767157639848208E-17i        0.9999999999999996
0.1                                               0.047276848168906094-2.5134751392952593E-17i      0.047276848168906094-2.5134751392952596E-17i      0.9999999999999999
0.1                                               0.05002223031562239-4.2969348860577504E-17i       0.0500222303156224-4.2969348860577504E-17i        1.0000000000000007
0.1                                               0.053613242243024876                              0.053613242243024876                              0.9999999999999986
0.1                                               0.05402730517660491+3.9924559663550586E-17i       0.05402730517660491+3.9924559663550586E-17i       0.9999999999999991
0.1                                               0.05491157393041998+6.02917861874412E-17i         0.05491157393041999+6.02917861874412E-17i         0.9999999999999991
0.1                                               0.058353453193486865                              0.05835345319348687                               1.0000000000000002
0.1                                               0.058922641647086375+3.7549957072483374E-17i      0.05892264164708638+3.7549957072483374E-17i       0.9999999999999986
0.1                                               0.06033811737494282+4.2901062596501044E-17i       0.06033811737494282+4.290106259650105E-17i        1.0000000000000007
0.1                                               0.062282616404912186+4.0151040006545783E-17i      0.062282616404912186+4.0151040006545783E-17i      1
0.1                                               0.06785672201515892-3.877715347164045E-17i        0.06785672201515892-3.877715347164045E-17i        1.0000000000000009
0.1                                               0.06907787563287539+5.229653507014659E-17i        0.06907787563287539+5.229653507014659E-17i        1.0000000000000007
0.1                                               0.06939644061244389+1.5362459288214336E-17i       0.06939644061244389+1.5362459288214336E-17i       0.9999999999999999
0.1                                               0.07622670917277435+6.546695910394436E-17i        0.07622670917277435+6.546695910394436E-17i        1.0000000000000002
0.1                                               0.07862057496281104-1.115978907943383E-16i        0.07862057496281104-1.115978907943383E-16i        1.0000000000000007
0.1                                               0.08007431699486448+2.101318526564365E-17i        0.08007431699486449+2.101318526564365E-17i        1
0.1                                               0.08274750824277212-3.454371806267166E-17i        0.08274750824277212-3.454371806267166E-17i        0.9999999999999993
0.1                                               0.08387467986356084                               0.08387467986356084                               0.999999999999998
0.1                                               0.08566317150630219                               0.0856631715063022                                0.999999999999998
0.1                                               0.08894679660101404+4.129615839379314E-17i        0.08894679660101404+4.1296158393793145E-17i       0.9999999999999987
0.1                                               0.09091033812971029-6.499071591149999E-17i        0.09091033812971029-6.499071591149999E-17i        0.9999999999999991
0.1                                               0.09256716122826181+4.0544032030925146E-15i       0.09256716122826181+4.0544032030925146E-15i       1.0000000000000013
0.1                                               0.09477205618136306-9.459623571316898E-16i        0.09477205618136306-9.459623571316898E-16i        1.0000000000000004
0.1                                               0.10010713531465427-1.9715565282332662E-13i       0.10010713531465427-1.9715565282332664E-13i       1.0000000000000004
0.1                                               0.1044923108769435-5.602501604523999E-11i         0.1044923108769435-5.602501604523999E-11i         0.9999999999999991
0.1                                               0.10518437114403442+4.3240330670463914E-10i       0.10518437114403442+4.324033067046392E-10i        1.0000000000000007
0.1                                               0.10633989252908442+6.868019546984252E-10i        0.10633989252908442+6.868019546984252E-10i        1.0000000000000018
0.2                                               -0.020632278635660778+2.517541291318615E-17i      -0.020632278635660778+2.517541291318615E-17i      1
0.2                                               -0.012904213668233896+6.790889943789877E-17i      -0.012904213668233896+6.790889943789877E-17i      1.000000000000001
0.2                                               -0.005420155419759182-1.7362076732234676E-17i     -0.005420155419759182-1.736207673223468E-17i      0.9999999999999984
0.2                                               0.0018196346163999177-3.4390731485056794E-18i     0.0018196346163999177-3.4390731485056794E-18i     1.0000000000000002
0.2                                               0.008812992286758761+2.3733445364665084E-17i      0.008812992286758761+2.3733445364665084E-17i      0.9999999999999987
0.2                                               0.015555493110143495-4.3021179983042755E-17i      0.015555493110143495-4.302117998304276E-17i       0.9999999999999992
0.2                                               0.022039908274486805+4.3469229920415975E-17i      0.02203990827448681+4.346922992041598E-17i        1.000000000000002
0.2                                               0.028255422742811537+6.357477587637089E-17i       0.028255422742811537+6.35747758763709E-17i        1
0.2                                               0.031319995510386583-2.603022543093202E-16i       0.031319995510386583-2.603022543093202E-16i       0.999999999999999
0.2                                               0.034186066201704016+6.089381131111954E-17i       0.03418606620170402+6.089381131111954E-17i        0.9999999999999994
0.2                                               0.03864141966147272                               0.03864141966147272                               1.0000000000000018
0.2                                               0.039411637218869776-1.1064414693075609E-16i      0.039411637218869776-1.1064414693075609E-16i      1.0000000000000013
0.2                                               0.03980998210581215+2.3806671965626273E-17i       0.03980998210581215+2.3806671965626273E-17i       1.0000000000000004
0.2                                               0.04507983674386647+1.226355371541356E-16i        0.045079836743866473+1.226355371541356E-16i       1.000000000000001
0.2                                               0.047277731956775634-5.161816899166567E-17i       0.04727773195677564-5.1618168991665675E-17i       1.0000000000000016
0.2                                               0.05000841277019851-3.035239861407596E-17i        0.05000841277019851-3.035239861407596E-17i        1.000000000000001
0.2                                               0.05361041106039529                               0.05361041106039529                               1.0000000000000002
0.2                                               0.054078636141183-1.041185581399769E-16i          0.054078636141183-1.041185581399769E-16i          1.000000000000002
0.2                                               0.05491235779706278-2.617673888199325E-17i        0.05491235779706278-2.617673888199325E-17i        0.999999999999999
0.2                                               0.058357214154500944                              0.05835721415450095                               1
0.2                                               0.05863442800583934-3.170913134300031E-17i        0.05863442800583934-3.170913134300031E-17i        1.000000000000002
0.2                                               0.06068445415636921-2.3974677933150467E-17i       0.060684454156369215-2.3974677933150467E-17i      0.9999999999999986
0.2                                               0.06228349026693033+1.004339413351312E-16i        0.062283490266930336+1.004339413351312E-16i       0.9999999999999988
0.2                                               0.06725992279475596-8.669317551313478E-17i        0.06725992279475596-8.669317551313478E-17i        1
0.2                                               0.06939724996354885+1.522374711254574E-17i        0.06939724996354885+1.522374711254574E-17i        1.0000000000000007
0.2                                               0.06969982704234057-6.027660707817793E-17i        0.06969982704234057-6.027660707817793E-17i        0.999999999999999
0.2                                               0.07622751940382147                               0.07622751940382147                               1.0000000000000007
0.2                                               0.07790405587692266-3.652785913821127E-17i        0.07790405587692266-3.652785913821127E-17i        0.9999999999999986
0.2                                               0.08081144072874295+5.612693995096385E-17i        0.08081144072874295+5.612693995096385E-17i        0.9999999999999996
0.2                                               0.08274842256574018+5.97648021458448E-17i         0.08274842256574018+5.97648021458448E-17i         1.0000000000000018
0.2                                               0.08382764302671858                               0.08382764302671858                               1.0000000000000004
0.2                                               0.08571167634548982                               0.08571167634548982                               0.9999999999999989
0.2                                               0.08894769452349532+6.712246828744655E-17i        0.08894769452349532+6.712246828744655E-17i        1.0000000000000009
0.2                                               0.0900916219818068+1.6972922337540362E-16i        0.09009162198180681+1.6972922337540365E-16i       0.9999999999999998
0.2                                               0.0934052159566264+7.307063813864821E-15i         0.09340521595662642+7.307063813864821E-15i        1.0000000000000027
0.2                                               0.09477196105179467-7.786808432749746E-16i        0.09477196105179467-7.786808432749746E-16i        0.9999999999999996
0.2                                               0.10011404265424222-2.9813162034101626E-13i       0.10011404265424223-2.981316203410163E-13i        1.0000000000000004
0.2                                               0.10357806759828969-2.4593750250484787E-11i       0.1035780675982897-2.4593750250484787E-11i        0.9999999999999994
0.2                                               0.10514370866841932+1.422212106750852E-10i        0.10514370866841932+1.422212106750852E-10i        1.000000000000001
0.2                                               0.1072730334579317-9.103231597252951E-10i         0.1072730334579317-9.103231597252952E-10i         1.0000000000000004
0.30000000000000004                               -0.020631657230250164+3.247286114322333E-16i      -0.020631657230250164+3.247286114322333E-16i      1.0000000000000009
0.30000000000000004                               -0.012903818423466704-8.805063764244429E-17i      -0.012903818423466704-8.805063764244429E-17i      1.0000000000000007
0.30000000000000004                               -0.0054199619710108005+1.377229219909622E-16i     -0.005419961971010801+1.377229219909622E-16i      1.0000000000000002
0.30000000000000004                               0.0018196506795082612+1.1917126656786801E-17i     0.0018196506795082614+1.1917126656786801E-17i     0.9999999999999994
0.30000000000000004                               0.008812854903907139+1.6308154494489214E-17i      0.00881285490390714+1.6308154494489214E-17i       0.9999999999999983
0.30000000000000004                               0.015555225068953057+1.9686419962617006E-17i      0.015555225068953057+1.968641996261701E-17i       1.0000000000000002
0.30000000000000004                               0.022039532027975373-4.4681152793905854E-17i      0.022039532027975373-4.4681152793905854E-17i      0.9999999999999988
0.30000000000000004                               0.028254955046679534+1.2407491983856145E-17i      0.028254955046679534+1.2407491983856145E-17i      0.9999999999999998
0.30000000000000004                               0.03132154183004121+9.074794347995773E-17i        0.03132154183004121+9.074794347995773E-17i        1.0000000000000022
0.30000000000000004                               0.034185578146106385-1.3684850773350933E-16i      0.034185578146106385-1.3684850773350933E-16i      1.000000000000001
0.30000000000000004                               0.03864185206993867-8.235195509731011E-18i        0.03864185206993867-8.235195509731011E-18i        1
0.30000000000000004                               0.03941324947283292-2.8131131184461775E-17i       0.03941324947283292-2.8131131184461775E-17i       1.0000000000000002
0.30000000000000004                               0.039809029046385634+3.55995969296504E-17i        0.03980902904638564+3.55995969296504E-17i         0.9999999999999986
0.30000000000000004                               0.04508230081484706-2.082204806133294E-17i        0.04508230081484706-2.082204806133294E-17i        1.0000000000000004
0.30000000000000004                               0.047279205080512976-5.3069052084394773E-17i      0.04727920508051298-5.306905208439478E-17i        1.0000000000000013
0.30000000000000004                               0.04998771657960579+1.4111113885932856E-17i       0.049987716579605795+1.4111113885932856E-17i      1.0000000000000002
0.30000000000000004                               0.0536057072640058                                0.0536057072640058                                0.9999999999999993
0.30000000000000004                               0.054159176128703135+5.1300062810661736E-17i      0.05415917612870314+5.1300062810661736E-17i       0.9999999999999982
0.30000000000000004                               0.054913666789895815+9.60338657918103E-17i        0.05491366678989582+9.60338657918103E-17i         1
0.30000000000000004                               0.05830215293016111-1.304377207488417E-17i        0.05830215293016111-1.3043772074884171E-17i       0.9999999999999982
0.30000000000000004                               0.058374118384980245+1.709992195042635E-17i       0.05837411838498025+1.709992195042635E-17i        1.0000000000000009
0.30000000000000004                               0.06110573935877353+3.091809524200236E-17i        0.06110573935877354+3.091809524200236E-17i        1.0000000000000004
0.30000000000000004                               0.06228494634319894+1.7755332178387356E-16i       0.06228494634319894+1.7755332178387356E-16i       0.9999999999999998
0.30000000000000004                               0.06667178045741383                               0.06667178045741383                               0.9999999999999993
0.30000000000000004                               0.06939863084706271-8.365832667028822E-18i        0.06939863084706271-8.365832667028822E-18i        1.0000000000000002
0.30000000000000004                               0.07032998595464479-3.6674758512590714E-17i       0.07032998595464479-3.6674758512590714E-17i       1.0000000000000004
0.30000000000000004                               0.07622886761637589-3.340880571735603E-17i        0.07622886761637589-3.340880571735603E-17i        0.9999999999999998
0.30000000000000004                               0.07719451022530947-8.47384425988728E-17i         0.07719451022530947-8.473844259887281E-17i        1.0000000000000002
0.30000000000000004                               0.08155533801887674+6.177544158998041E-17i        0.08155533801887675+6.177544158998041E-17i        0.9999999999999998
0.30000000000000004                               0.08274994493092694                               0.08274994493092694                               0.9999999999999999
0.30000000000000004                               0.08375423079046482                               0.08375423079046482                               1.0000000000000022
0.30000000000000004                               0.08578753769705812                               0.08578753769705812                               1.0000000000000018
0.30000000000000004                               0.08894913385218654+1.8580352628930025E-16i       0.08894913385218654+1.8580352628930025E-16i       0.9999999999999991
0.30000000000000004                               0.08927944763081741+1.4817630496244033E-16i       0.08927944763081741+1.4817630496244033E-16i       1.0000000000000009
0.30000000000000004                               0.09424964833921992+2.017940997747262E-14i        0.09424964833921992+2.0179409977472623E-14i       1.0000000000000013
0.30000000000000004                               0.09477192640298487-1.7959218483775966E-15i       0.09477192640298487-1.7959218483775966E-15i       0.999999999999999
0.30000000000000004                               0.10012487356834517-2.568486310565937E-13i        0.10012487356834517-2.568486310565937E-13i        0.9999999999999994
0.30000000000000004                               0.10267011981237135-4.139666039906307E-12i        0.10267011981237137-4.139666039906307E-12i        0.9999999999999989
0.30000000000000004                               0.10508362231178224+6.46629861614691E-11i         0.10508362231178224+6.46629861614691E-11i         1.0000000000000002
0.30000000000000004                               0.10821239635291152+2.5396610870761993E-10i       0.10821239635291154+2.5396610870761993E-10i       1.0000000000000013
0.4                                               -0.020630787277197263-8.540175736628807E-17i      -0.020630787277197266-8.540175736628809E-17i      1.0000000000000009
0.4                                               -0.012903265073330603+3.158267463453828E-17i      -0.012903265073330603+3.158267463453828E-17i      1.0000000000000002
0.4                                               -0.005419691114583514-1.036757904552028E-16i      -0.0054196911145835145-1.036757904552028E-16i     1.0000000000000007
0.4                                               0.0018196732144462185-1.0737212709662264E-17i     0.0018196732144462188-1.0737212709662264E-17i     0.9999999999999997
0.4                                               0.008812662626457676-7.236392748404276E-17i       0.008812662626457676-7.236392748404276E-17i       1.0000000000000016
0.4                                               0.015554849883424565+3.1722888826621824E-17i      0.015554849883424565+3.1722888826621824E-17i      0.999999999999999
0.4                                               0.02203900530331812+1.0413507617460764E-16i       0.02203900530331812+1.0413507617460764E-16i       1.0000000000000009
0.4                                               0.028254300998557302-2.5997754324864076E-17i      0.028254300998557302-2.599775432486408E-17i       1.0000000000000004
0.4                                               0.03132370666036462+1.0044461260189326E-16i       0.03132370666036462+1.0044461260189326E-16i       0.9999999999999987
0.4                                               0.03418488732805651+2.646597669526647E-17i        0.03418488732805652+2.6465976695266472E-17i       0.9999999999999998
0.4                                               0.038642458808681585-6.654321561312477E-18i       0.038642458808681585-6.654321561312478E-18i       0.9999999999999926
0.4                                               0.03941550563219776-1.259012254945034E-17i        0.03941550563219776-1.2590122549450342E-17i       1
0.4                                               0.03980776804698522-4.510995197097192E-17i        0.03980776804698522-4.510995197097192E-17i        0.9999999999999989
0.4                                               0.045085168245115416+1.359962496816731E-16i       0.045085168245115416+1.359962496816731E-16i       1.0000000000000033
0.4                                               0.0472812677546943-3.900394158341801E-17i         0.04728126775469431-3.900394158341801E-17i        0.9999999999999993
0.4                                               0.049963131563069                                 0.04996313156306901                               0.9999999999999987